+ 0.5 0 2 cbr 1000 ------- 0 0.0 3.0 0 0
- 0.5 0 2 cbr 1000 ------- 0 0.0 3.0 0 0
r 0.5036 0 2 cbr 1000 ------- 0 0.0 3.0 0 0
+ 0.5036 2 3 cbr 1000 ------- 0 0.0 3.0 0 0
- 0.5036 2 3 cbr 1000 ------- 0 0.0 3.0 0 0
+ 0.51 0 2 cbr 1000 ------- 0 0.0 3.0 1 1
- 0.51 0 2 cbr 1000 ------- 0 0.0 3.0 1 1
r 0.5136 0 2 cbr 1000 ------- 0 0.0 3.0 1 1
+ 0.5136 2 3 cbr 1000 ------- 0 0.0 3.0 1 1
- 0.5136 2 3 cbr 1000 ------- 0 0.0 3.0 1 1
r 0.518933 2 3 cbr 1000 ------- 0 0.0 3.0 0 0
+ 0.52 0 2 cbr 1000 ------- 0 0.0 3.0 2 2
- 0.52 0 2 cbr 1000 ------- 0 0.0 3.0 2 2
r 0.5236 0 2 cbr 1000 ------- 0 0.0 3.0 2 2
+ 0.5236 2 3 cbr 1000 ------- 0 0.0 3.0 2 2
- 0.5236 2 3 cbr 1000 ------- 0 0.0 3.0 2 2
r 0.528933 2 3 cbr 1000 ------- 0 0.0 3.0 1 1
+ 0.53 0 2 cbr 1000 ------- 0 0.0 3.0 3 3
- 0.53 0 2 cbr 1000 ------- 0 0.0 3.0 3 3
r 0.5336 0 2 cbr 1000 ------- 0 0.0 3.0 3 3
+ 0.5336 2 3 cbr 1000 ------- 0 0.0 3.0 3 3
- 0.5336 2 3 cbr 1000 ------- 0 0.0 3.0 3 3
r 0.538933 2 3 cbr 1000 ------- 0 0.0 3.0 2 2
+ 0.54 0 2 cbr 1000 ------- 0 0.0 3.0 4 4
- 0.54 0 2 cbr 1000 ------- 0 0.0 3.0 4 4
r 0.5436 0 2 cbr 1000 ------- 0 0.0 3.0 4 4
+ 0.5436 2 3 cbr 1000 ------- 0 0.0 3.0 4 4
- 0.5436 2 3 cbr 1000 ------- 0 0.0 3.0 4 4
r 0.548933 2 3 cbr 1000 ------- 0 0.0 3.0 3 3
+ 0.55 0 2 cbr 1000 ------- 0 0.0 3.0 5 5
- 0.55 0 2 cbr 1000 ------- 0 0.0 3.0 5 5
r 0.5536 0 2 cbr 1000 ------- 0 0.0 3.0 5 5
+ 0.5536 2 3 cbr 1000 ------- 0 0.0 3.0 5 5
- 0.5536 2 3 cbr 1000 ------- 0 0.0 3.0 5 5
r 0.558933 2 3 cbr 1000 ------- 0 0.0 3.0 4 4
+ 0.56 0 2 cbr 1000 ------- 0 0.0 3.0 6 6
- 0.56 0 2 cbr 1000 ------- 0 0.0 3.0 6 6
r 0.5636 0 2 cbr 1000 ------- 0 0.0 3.0 6 6
+ 0.5636 2 3 cbr 1000 ------- 0 0.0 3.0 6 6
- 0.5636 2 3 cbr 1000 ------- 0 0.0 3.0 6 6
r 0.568933 2 3 cbr 1000 ------- 0 0.0 3.0 5 5
+ 0.57 0 2 cbr 1000 ------- 0 0.0 3.0 7 7
- 0.57 0 2 cbr 1000 ------- 0 0.0 3.0 7 7
r 0.5736 0 2 cbr 1000 ------- 0 0.0 3.0 7 7
+ 0.5736 2 3 cbr 1000 ------- 0 0.0 3.0 7 7
- 0.5736 2 3 cbr 1000 ------- 0 0.0 3.0 7 7
r 0.578933 2 3 cbr 1000 ------- 0 0.0 3.0 6 6
+ 0.58 0 2 cbr 1000 ------- 0 0.0 3.0 8 8
- 0.58 0 2 cbr 1000 ------- 0 0.0 3.0 8 8
r 0.5836 0 2 cbr 1000 ------- 0 0.0 3.0 8 8
+ 0.5836 2 3 cbr 1000 ------- 0 0.0 3.0 8 8
- 0.5836 2 3 cbr 1000 ------- 0 0.0 3.0 8 8
r 0.588933 2 3 cbr 1000 ------- 0 0.0 3.0 7 7
+ 0.59 0 2 cbr 1000 ------- 0 0.0 3.0 9 9
- 0.59 0 2 cbr 1000 ------- 0 0.0 3.0 9 9
r 0.5936 0 2 cbr 1000 ------- 0 0.0 3.0 9 9
+ 0.5936 2 3 cbr 1000 ------- 0 0.0 3.0 9 9
- 0.5936 2 3 cbr 1000 ------- 0 0.0 3.0 9 9
r 0.598933 2 3 cbr 1000 ------- 0 0.0 3.0 8 8
+ 0.6 1 2 cbr 1000 ------- 0 1.0 3.1 0 10
- 0.6 1 2 cbr 1000 ------- 0 1.0 3.1 0 10
+ 0.6 0 2 cbr 1000 ------- 0 0.0 3.0 10 11
- 0.6 0 2 cbr 1000 ------- 0 0.0 3.0 10 11
r 0.6036 1 2 cbr 1000 ------- 0 1.0 3.1 0 10
+ 0.6036 2 3 cbr 1000 ------- 0 1.0 3.1 0 10
- 0.6036 2 3 cbr 1000 ------- 0 1.0 3.1 0 10
r 0.6036 0 2 cbr 1000 ------- 0 0.0 3.0 10 11
+ 0.6036 2 3 cbr 1000 ------- 0 0.0 3.0 10 11
- 0.608933 2 3 cbr 1000 ------- 0 0.0 3.0 10 11
r 0.608933 2 3 cbr 1000 ------- 0 0.0 3.0 9 9
+ 0.61 1 2 cbr 1000 ------- 0 1.0 3.1 1 12
- 0.61 1 2 cbr 1000 ------- 0 1.0 3.1 1 12
+ 0.61 0 2 cbr 1000 ------- 0 0.0 3.0 11 13
- 0.61 0 2 cbr 1000 ------- 0 0.0 3.0 11 13
r 0.6136 1 2 cbr 1000 ------- 0 1.0 3.1 1 12
+ 0.6136 2 3 cbr 1000 ------- 0 1.0 3.1 1 12
r 0.6136 0 2 cbr 1000 ------- 0 0.0 3.0 11 13
+ 0.6136 2 3 cbr 1000 ------- 0 0.0 3.0 11 13
- 0.614267 2 3 cbr 1000 ------- 0 1.0 3.1 1 12
r 0.618933 2 3 cbr 1000 ------- 0 1.0 3.1 0 10
- 0.6196 2 3 cbr 1000 ------- 0 0.0 3.0 11 13
+ 0.62 1 2 cbr 1000 ------- 0 1.0 3.1 2 14
- 0.62 1 2 cbr 1000 ------- 0 1.0 3.1 2 14
+ 0.62 0 2 cbr 1000 ------- 0 0.0 3.0 12 15
- 0.62 0 2 cbr 1000 ------- 0 0.0 3.0 12 15
r 0.6236 1 2 cbr 1000 ------- 0 1.0 3.1 2 14
+ 0.6236 2 3 cbr 1000 ------- 0 1.0 3.1 2 14
r 0.6236 0 2 cbr 1000 ------- 0 0.0 3.0 12 15
+ 0.6236 2 3 cbr 1000 ------- 0 0.0 3.0 12 15
r 0.624267 2 3 cbr 1000 ------- 0 0.0 3.0 10 11
- 0.624933 2 3 cbr 1000 ------- 0 1.0 3.1 2 14
r 0.6296 2 3 cbr 1000 ------- 0 1.0 3.1 1 12
+ 0.63 1 2 cbr 1000 ------- 0 1.0 3.1 3 16
- 0.63 1 2 cbr 1000 ------- 0 1.0 3.1 3 16
+ 0.63 0 2 cbr 1000 ------- 0 0.0 3.0 13 17
- 0.63 0 2 cbr 1000 ------- 0 0.0 3.0 13 17
- 0.630267 2 3 cbr 1000 ------- 0 0.0 3.0 12 15
r 0.6336 1 2 cbr 1000 ------- 0 1.0 3.1 3 16
+ 0.6336 2 3 cbr 1000 ------- 0 1.0 3.1 3 16
r 0.6336 0 2 cbr 1000 ------- 0 0.0 3.0 13 17
+ 0.6336 2 3 cbr 1000 ------- 0 0.0 3.0 13 17
r 0.634933 2 3 cbr 1000 ------- 0 0.0 3.0 11 13
- 0.6356 2 3 cbr 1000 ------- 0 1.0 3.1 3 16
+ 0.64 1 2 cbr 1000 ------- 0 1.0 3.1 4 18
- 0.64 1 2 cbr 1000 ------- 0 1.0 3.1 4 18
+ 0.64 0 2 cbr 1000 ------- 0 0.0 3.0 14 19
- 0.64 0 2 cbr 1000 ------- 0 0.0 3.0 14 19
r 0.640267 2 3 cbr 1000 ------- 0 1.0 3.1 2 14
- 0.640933 2 3 cbr 1000 ------- 0 0.0 3.0 13 17
r 0.6436 1 2 cbr 1000 ------- 0 1.0 3.1 4 18
+ 0.6436 2 3 cbr 1000 ------- 0 1.0 3.1 4 18
r 0.6436 0 2 cbr 1000 ------- 0 0.0 3.0 14 19
+ 0.6436 2 3 cbr 1000 ------- 0 0.0 3.0 14 19
r 0.6456 2 3 cbr 1000 ------- 0 0.0 3.0 12 15
- 0.646267 2 3 cbr 1000 ------- 0 1.0 3.1 4 18
+ 0.65 1 2 cbr 1000 ------- 0 1.0 3.1 5 20
- 0.65 1 2 cbr 1000 ------- 0 1.0 3.1 5 20
+ 0.65 0 2 cbr 1000 ------- 0 0.0 3.0 15 21
- 0.65 0 2 cbr 1000 ------- 0 0.0 3.0 15 21
r 0.650933 2 3 cbr 1000 ------- 0 1.0 3.1 3 16
- 0.6516 2 3 cbr 1000 ------- 0 0.0 3.0 14 19
r 0.6536 1 2 cbr 1000 ------- 0 1.0 3.1 5 20
+ 0.6536 2 3 cbr 1000 ------- 0 1.0 3.1 5 20
r 0.6536 0 2 cbr 1000 ------- 0 0.0 3.0 15 21
+ 0.6536 2 3 cbr 1000 ------- 0 0.0 3.0 15 21
r 0.656267 2 3 cbr 1000 ------- 0 0.0 3.0 13 17
- 0.656933 2 3 cbr 1000 ------- 0 1.0 3.1 5 20
+ 0.66 1 2 cbr 1000 ------- 0 1.0 3.1 6 22
- 0.66 1 2 cbr 1000 ------- 0 1.0 3.1 6 22
+ 0.66 0 2 cbr 1000 ------- 0 0.0 3.0 16 23
- 0.66 0 2 cbr 1000 ------- 0 0.0 3.0 16 23
r 0.6616 2 3 cbr 1000 ------- 0 1.0 3.1 4 18
- 0.662267 2 3 cbr 1000 ------- 0 0.0 3.0 15 21
r 0.6636 1 2 cbr 1000 ------- 0 1.0 3.1 6 22
+ 0.6636 2 3 cbr 1000 ------- 0 1.0 3.1 6 22
r 0.6636 0 2 cbr 1000 ------- 0 0.0 3.0 16 23
+ 0.6636 2 3 cbr 1000 ------- 0 0.0 3.0 16 23
r 0.666933 2 3 cbr 1000 ------- 0 0.0 3.0 14 19
- 0.6676 2 3 cbr 1000 ------- 0 1.0 3.1 6 22
+ 0.67 1 2 cbr 1000 ------- 0 1.0 3.1 7 24
- 0.67 1 2 cbr 1000 ------- 0 1.0 3.1 7 24
+ 0.67 0 2 cbr 1000 ------- 0 0.0 3.0 17 25
- 0.67 0 2 cbr 1000 ------- 0 0.0 3.0 17 25
r 0.672267 2 3 cbr 1000 ------- 0 1.0 3.1 5 20
- 0.672933 2 3 cbr 1000 ------- 0 0.0 3.0 16 23
r 0.6736 1 2 cbr 1000 ------- 0 1.0 3.1 7 24
+ 0.6736 2 3 cbr 1000 ------- 0 1.0 3.1 7 24
r 0.6736 0 2 cbr 1000 ------- 0 0.0 3.0 17 25
+ 0.6736 2 3 cbr 1000 ------- 0 0.0 3.0 17 25
r 0.6776 2 3 cbr 1000 ------- 0 0.0 3.0 15 21
- 0.678267 2 3 cbr 1000 ------- 0 1.0 3.1 7 24
+ 0.68 1 2 cbr 1000 ------- 0 1.0 3.1 8 26
- 0.68 1 2 cbr 1000 ------- 0 1.0 3.1 8 26
+ 0.68 0 2 cbr 1000 ------- 0 0.0 3.0 18 27
- 0.68 0 2 cbr 1000 ------- 0 0.0 3.0 18 27
r 0.682933 2 3 cbr 1000 ------- 0 1.0 3.1 6 22
- 0.6836 2 3 cbr 1000 ------- 0 0.0 3.0 17 25
r 0.6836 1 2 cbr 1000 ------- 0 1.0 3.1 8 26
+ 0.6836 2 3 cbr 1000 ------- 0 1.0 3.1 8 26
r 0.6836 0 2 cbr 1000 ------- 0 0.0 3.0 18 27
+ 0.6836 2 3 cbr 1000 ------- 0 0.0 3.0 18 27
r 0.688267 2 3 cbr 1000 ------- 0 0.0 3.0 16 23
- 0.688933 2 3 cbr 1000 ------- 0 1.0 3.1 8 26
+ 0.69 1 2 cbr 1000 ------- 0 1.0 3.1 9 28
- 0.69 1 2 cbr 1000 ------- 0 1.0 3.1 9 28
+ 0.69 0 2 cbr 1000 ------- 0 0.0 3.0 19 29
- 0.69 0 2 cbr 1000 ------- 0 0.0 3.0 19 29
r 0.6936 2 3 cbr 1000 ------- 0 1.0 3.1 7 24
r 0.6936 1 2 cbr 1000 ------- 0 1.0 3.1 9 28
+ 0.6936 2 3 cbr 1000 ------- 0 1.0 3.1 9 28
r 0.6936 0 2 cbr 1000 ------- 0 0.0 3.0 19 29
+ 0.6936 2 3 cbr 1000 ------- 0 0.0 3.0 19 29
- 0.694267 2 3 cbr 1000 ------- 0 0.0 3.0 18 27
r 0.698933 2 3 cbr 1000 ------- 0 0.0 3.0 17 25
- 0.6996 2 3 cbr 1000 ------- 0 1.0 3.1 9 28
+ 0.7 1 2 cbr 1000 ------- 0 1.0 3.1 10 30
- 0.7 1 2 cbr 1000 ------- 0 1.0 3.1 10 30
+ 0.7 0 2 cbr 1000 ------- 0 0.0 3.0 20 31
- 0.7 0 2 cbr 1000 ------- 0 0.0 3.0 20 31
r 0.7036 1 2 cbr 1000 ------- 0 1.0 3.1 10 30
+ 0.7036 2 3 cbr 1000 ------- 0 1.0 3.1 10 30
r 0.7036 0 2 cbr 1000 ------- 0 0.0 3.0 20 31
+ 0.7036 2 3 cbr 1000 ------- 0 0.0 3.0 20 31
r 0.704267 2 3 cbr 1000 ------- 0 1.0 3.1 8 26
- 0.704933 2 3 cbr 1000 ------- 0 0.0 3.0 19 29
r 0.7096 2 3 cbr 1000 ------- 0 0.0 3.0 18 27
+ 0.71 1 2 cbr 1000 ------- 0 1.0 3.1 11 32
- 0.71 1 2 cbr 1000 ------- 0 1.0 3.1 11 32
+ 0.71 0 2 cbr 1000 ------- 0 0.0 3.0 21 33
- 0.71 0 2 cbr 1000 ------- 0 0.0 3.0 21 33
- 0.710267 2 3 cbr 1000 ------- 0 1.0 3.1 10 30
r 0.7136 1 2 cbr 1000 ------- 0 1.0 3.1 11 32
+ 0.7136 2 3 cbr 1000 ------- 0 1.0 3.1 11 32
r 0.7136 0 2 cbr 1000 ------- 0 0.0 3.0 21 33
+ 0.7136 2 3 cbr 1000 ------- 0 0.0 3.0 21 33
r 0.714933 2 3 cbr 1000 ------- 0 1.0 3.1 9 28
- 0.7156 2 3 cbr 1000 ------- 0 0.0 3.0 20 31
+ 0.72 1 2 cbr 1000 ------- 0 1.0 3.1 12 34
- 0.72 1 2 cbr 1000 ------- 0 1.0 3.1 12 34
+ 0.72 0 2 cbr 1000 ------- 0 0.0 3.0 22 35
- 0.72 0 2 cbr 1000 ------- 0 0.0 3.0 22 35
r 0.720267 2 3 cbr 1000 ------- 0 0.0 3.0 19 29
- 0.720933 2 3 cbr 1000 ------- 0 1.0 3.1 11 32
r 0.7236 1 2 cbr 1000 ------- 0 1.0 3.1 12 34
+ 0.7236 2 3 cbr 1000 ------- 0 1.0 3.1 12 34
r 0.7236 0 2 cbr 1000 ------- 0 0.0 3.0 22 35
+ 0.7236 2 3 cbr 1000 ------- 0 0.0 3.0 22 35
r 0.7256 2 3 cbr 1000 ------- 0 1.0 3.1 10 30
- 0.726267 2 3 cbr 1000 ------- 0 0.0 3.0 21 33
+ 0.73 1 2 cbr 1000 ------- 0 1.0 3.1 13 36
- 0.73 1 2 cbr 1000 ------- 0 1.0 3.1 13 36
+ 0.73 0 2 cbr 1000 ------- 0 0.0 3.0 23 37
- 0.73 0 2 cbr 1000 ------- 0 0.0 3.0 23 37
r 0.730933 2 3 cbr 1000 ------- 0 0.0 3.0 20 31
- 0.7316 2 3 cbr 1000 ------- 0 1.0 3.1 12 34
r 0.7336 1 2 cbr 1000 ------- 0 1.0 3.1 13 36
+ 0.7336 2 3 cbr 1000 ------- 0 1.0 3.1 13 36
r 0.7336 0 2 cbr 1000 ------- 0 0.0 3.0 23 37
+ 0.7336 2 3 cbr 1000 ------- 0 0.0 3.0 23 37
r 0.736267 2 3 cbr 1000 ------- 0 1.0 3.1 11 32
- 0.736933 2 3 cbr 1000 ------- 0 0.0 3.0 22 35
+ 0.74 1 2 cbr 1000 ------- 0 1.0 3.1 14 38
- 0.74 1 2 cbr 1000 ------- 0 1.0 3.1 14 38
+ 0.74 0 2 cbr 1000 ------- 0 0.0 3.0 24 39
- 0.74 0 2 cbr 1000 ------- 0 0.0 3.0 24 39
r 0.7416 2 3 cbr 1000 ------- 0 0.0 3.0 21 33
- 0.742267 2 3 cbr 1000 ------- 0 1.0 3.1 13 36
r 0.7436 1 2 cbr 1000 ------- 0 1.0 3.1 14 38
+ 0.7436 2 3 cbr 1000 ------- 0 1.0 3.1 14 38
r 0.7436 0 2 cbr 1000 ------- 0 0.0 3.0 24 39
+ 0.7436 2 3 cbr 1000 ------- 0 0.0 3.0 24 39
r 0.746933 2 3 cbr 1000 ------- 0 1.0 3.1 12 34
- 0.7476 2 3 cbr 1000 ------- 0 0.0 3.0 23 37
+ 0.75 1 2 cbr 1000 ------- 0 1.0 3.1 15 40
- 0.75 1 2 cbr 1000 ------- 0 1.0 3.1 15 40
+ 0.75 0 2 cbr 1000 ------- 0 0.0 3.0 25 41
- 0.75 0 2 cbr 1000 ------- 0 0.0 3.0 25 41
r 0.752267 2 3 cbr 1000 ------- 0 0.0 3.0 22 35
- 0.752933 2 3 cbr 1000 ------- 0 1.0 3.1 14 38
r 0.7536 1 2 cbr 1000 ------- 0 1.0 3.1 15 40
+ 0.7536 2 3 cbr 1000 ------- 0 1.0 3.1 15 40
r 0.7536 0 2 cbr 1000 ------- 0 0.0 3.0 25 41
+ 0.7536 2 3 cbr 1000 ------- 0 0.0 3.0 25 41
r 0.7576 2 3 cbr 1000 ------- 0 1.0 3.1 13 36
- 0.758267 2 3 cbr 1000 ------- 0 0.0 3.0 24 39
+ 0.76 1 2 cbr 1000 ------- 0 1.0 3.1 16 42
- 0.76 1 2 cbr 1000 ------- 0 1.0 3.1 16 42
+ 0.76 0 2 cbr 1000 ------- 0 0.0 3.0 26 43
- 0.76 0 2 cbr 1000 ------- 0 0.0 3.0 26 43
r 0.762933 2 3 cbr 1000 ------- 0 0.0 3.0 23 37
- 0.7636 2 3 cbr 1000 ------- 0 1.0 3.1 15 40
r 0.7636 1 2 cbr 1000 ------- 0 1.0 3.1 16 42
+ 0.7636 2 3 cbr 1000 ------- 0 1.0 3.1 16 42
r 0.7636 0 2 cbr 1000 ------- 0 0.0 3.0 26 43
+ 0.7636 2 3 cbr 1000 ------- 0 0.0 3.0 26 43
r 0.768267 2 3 cbr 1000 ------- 0 1.0 3.1 14 38
- 0.768933 2 3 cbr 1000 ------- 0 0.0 3.0 25 41
+ 0.77 1 2 cbr 1000 ------- 0 1.0 3.1 17 44
- 0.77 1 2 cbr 1000 ------- 0 1.0 3.1 17 44
+ 0.77 0 2 cbr 1000 ------- 0 0.0 3.0 27 45
- 0.77 0 2 cbr 1000 ------- 0 0.0 3.0 27 45
r 0.7736 2 3 cbr 1000 ------- 0 0.0 3.0 24 39
r 0.7736 1 2 cbr 1000 ------- 0 1.0 3.1 17 44
+ 0.7736 2 3 cbr 1000 ------- 0 1.0 3.1 17 44
r 0.7736 0 2 cbr 1000 ------- 0 0.0 3.0 27 45
+ 0.7736 2 3 cbr 1000 ------- 0 0.0 3.0 27 45
- 0.774267 2 3 cbr 1000 ------- 0 1.0 3.1 16 42
r 0.778933 2 3 cbr 1000 ------- 0 1.0 3.1 15 40
- 0.7796 2 3 cbr 1000 ------- 0 0.0 3.0 26 43
+ 0.78 1 2 cbr 1000 ------- 0 1.0 3.1 18 46
- 0.78 1 2 cbr 1000 ------- 0 1.0 3.1 18 46
+ 0.78 0 2 cbr 1000 ------- 0 0.0 3.0 28 47
- 0.78 0 2 cbr 1000 ------- 0 0.0 3.0 28 47
r 0.7836 1 2 cbr 1000 ------- 0 1.0 3.1 18 46
+ 0.7836 2 3 cbr 1000 ------- 0 1.0 3.1 18 46
r 0.7836 0 2 cbr 1000 ------- 0 0.0 3.0 28 47
+ 0.7836 2 3 cbr 1000 ------- 0 0.0 3.0 28 47
r 0.784267 2 3 cbr 1000 ------- 0 0.0 3.0 25 41
- 0.784933 2 3 cbr 1000 ------- 0 1.0 3.1 17 44
r 0.7896 2 3 cbr 1000 ------- 0 1.0 3.1 16 42
+ 0.79 1 2 cbr 1000 ------- 0 1.0 3.1 19 48
- 0.79 1 2 cbr 1000 ------- 0 1.0 3.1 19 48
+ 0.79 0 2 cbr 1000 ------- 0 0.0 3.0 29 49
- 0.79 0 2 cbr 1000 ------- 0 0.0 3.0 29 49
- 0.790267 2 3 cbr 1000 ------- 0 0.0 3.0 27 45
r 0.7936 1 2 cbr 1000 ------- 0 1.0 3.1 19 48
+ 0.7936 2 3 cbr 1000 ------- 0 1.0 3.1 19 48
r 0.7936 0 2 cbr 1000 ------- 0 0.0 3.0 29 49
+ 0.7936 2 3 cbr 1000 ------- 0 0.0 3.0 29 49
r 0.794933 2 3 cbr 1000 ------- 0 0.0 3.0 26 43
- 0.7956 2 3 cbr 1000 ------- 0 1.0 3.1 18 46
+ 0.8 1 2 cbr 1000 ------- 0 1.0 3.1 20 50
- 0.8 1 2 cbr 1000 ------- 0 1.0 3.1 20 50
+ 0.8 0 2 cbr 1000 ------- 0 0.0 3.0 30 51
- 0.8 0 2 cbr 1000 ------- 0 0.0 3.0 30 51
r 0.800267 2 3 cbr 1000 ------- 0 1.0 3.1 17 44
- 0.800933 2 3 cbr 1000 ------- 0 0.0 3.0 28 47
r 0.8036 1 2 cbr 1000 ------- 0 1.0 3.1 20 50
+ 0.8036 2 3 cbr 1000 ------- 0 1.0 3.1 20 50
r 0.8036 0 2 cbr 1000 ------- 0 0.0 3.0 30 51
+ 0.8036 2 3 cbr 1000 ------- 0 0.0 3.0 30 51
r 0.8056 2 3 cbr 1000 ------- 0 0.0 3.0 27 45
- 0.806267 2 3 cbr 1000 ------- 0 1.0 3.1 19 48
+ 0.81 1 2 cbr 1000 ------- 0 1.0 3.1 21 52
- 0.81 1 2 cbr 1000 ------- 0 1.0 3.1 21 52
+ 0.81 0 2 cbr 1000 ------- 0 0.0 3.0 31 53
- 0.81 0 2 cbr 1000 ------- 0 0.0 3.0 31 53
r 0.810933 2 3 cbr 1000 ------- 0 1.0 3.1 18 46
- 0.8116 2 3 cbr 1000 ------- 0 0.0 3.0 29 49
r 0.8136 1 2 cbr 1000 ------- 0 1.0 3.1 21 52
+ 0.8136 2 3 cbr 1000 ------- 0 1.0 3.1 21 52
r 0.8136 0 2 cbr 1000 ------- 0 0.0 3.0 31 53
+ 0.8136 2 3 cbr 1000 ------- 0 0.0 3.0 31 53
r 0.816267 2 3 cbr 1000 ------- 0 0.0 3.0 28 47
- 0.816933 2 3 cbr 1000 ------- 0 1.0 3.1 20 50
+ 0.82 1 2 cbr 1000 ------- 0 1.0 3.1 22 54
- 0.82 1 2 cbr 1000 ------- 0 1.0 3.1 22 54
+ 0.82 0 2 cbr 1000 ------- 0 0.0 3.0 32 55
- 0.82 0 2 cbr 1000 ------- 0 0.0 3.0 32 55
r 0.8216 2 3 cbr 1000 ------- 0 1.0 3.1 19 48
- 0.822267 2 3 cbr 1000 ------- 0 0.0 3.0 30 51
r 0.8236 1 2 cbr 1000 ------- 0 1.0 3.1 22 54
+ 0.8236 2 3 cbr 1000 ------- 0 1.0 3.1 22 54
r 0.8236 0 2 cbr 1000 ------- 0 0.0 3.0 32 55
+ 0.8236 2 3 cbr 1000 ------- 0 0.0 3.0 32 55
r 0.826933 2 3 cbr 1000 ------- 0 0.0 3.0 29 49
- 0.8276 2 3 cbr 1000 ------- 0 1.0 3.1 21 52
+ 0.83 1 2 cbr 1000 ------- 0 1.0 3.1 23 56
- 0.83 1 2 cbr 1000 ------- 0 1.0 3.1 23 56
+ 0.83 0 2 cbr 1000 ------- 0 0.0 3.0 33 57
- 0.83 0 2 cbr 1000 ------- 0 0.0 3.0 33 57
r 0.832267 2 3 cbr 1000 ------- 0 1.0 3.1 20 50
- 0.832933 2 3 cbr 1000 ------- 0 0.0 3.0 31 53
r 0.8336 1 2 cbr 1000 ------- 0 1.0 3.1 23 56
+ 0.8336 2 3 cbr 1000 ------- 0 1.0 3.1 23 56
r 0.8336 0 2 cbr 1000 ------- 0 0.0 3.0 33 57
+ 0.8336 2 3 cbr 1000 ------- 0 0.0 3.0 33 57
r 0.8376 2 3 cbr 1000 ------- 0 0.0 3.0 30 51
- 0.838267 2 3 cbr 1000 ------- 0 1.0 3.1 22 54
+ 0.84 1 2 cbr 1000 ------- 0 1.0 3.1 24 58
- 0.84 1 2 cbr 1000 ------- 0 1.0 3.1 24 58
+ 0.84 0 2 cbr 1000 ------- 0 0.0 3.0 34 59
- 0.84 0 2 cbr 1000 ------- 0 0.0 3.0 34 59
r 0.842933 2 3 cbr 1000 ------- 0 1.0 3.1 21 52
- 0.8436 2 3 cbr 1000 ------- 0 0.0 3.0 32 55
r 0.8436 1 2 cbr 1000 ------- 0 1.0 3.1 24 58
+ 0.8436 2 3 cbr 1000 ------- 0 1.0 3.1 24 58
r 0.8436 0 2 cbr 1000 ------- 0 0.0 3.0 34 59
+ 0.8436 2 3 cbr 1000 ------- 0 0.0 3.0 34 59
r 0.848267 2 3 cbr 1000 ------- 0 0.0 3.0 31 53
- 0.848933 2 3 cbr 1000 ------- 0 1.0 3.1 23 56
+ 0.85 1 2 cbr 1000 ------- 0 1.0 3.1 25 60
- 0.85 1 2 cbr 1000 ------- 0 1.0 3.1 25 60
+ 0.85 0 2 cbr 1000 ------- 0 0.0 3.0 35 61
- 0.85 0 2 cbr 1000 ------- 0 0.0 3.0 35 61
r 0.8536 2 3 cbr 1000 ------- 0 1.0 3.1 22 54
r 0.8536 1 2 cbr 1000 ------- 0 1.0 3.1 25 60
+ 0.8536 2 3 cbr 1000 ------- 0 1.0 3.1 25 60
r 0.8536 0 2 cbr 1000 ------- 0 0.0 3.0 35 61
+ 0.8536 2 3 cbr 1000 ------- 0 0.0 3.0 35 61
- 0.854267 2 3 cbr 1000 ------- 0 0.0 3.0 33 57
r 0.858933 2 3 cbr 1000 ------- 0 0.0 3.0 32 55
- 0.8596 2 3 cbr 1000 ------- 0 1.0 3.1 24 58
+ 0.86 1 2 cbr 1000 ------- 0 1.0 3.1 26 62
- 0.86 1 2 cbr 1000 ------- 0 1.0 3.1 26 62
+ 0.86 0 2 cbr 1000 ------- 0 0.0 3.0 36 63
- 0.86 0 2 cbr 1000 ------- 0 0.0 3.0 36 63
r 0.8636 1 2 cbr 1000 ------- 0 1.0 3.1 26 62
+ 0.8636 2 3 cbr 1000 ------- 0 1.0 3.1 26 62
r 0.8636 0 2 cbr 1000 ------- 0 0.0 3.0 36 63
+ 0.8636 2 3 cbr 1000 ------- 0 0.0 3.0 36 63
r 0.864267 2 3 cbr 1000 ------- 0 1.0 3.1 23 56
- 0.864933 2 3 cbr 1000 ------- 0 0.0 3.0 34 59
r 0.8696 2 3 cbr 1000 ------- 0 0.0 3.0 33 57
+ 0.87 1 2 cbr 1000 ------- 0 1.0 3.1 27 64
- 0.87 1 2 cbr 1000 ------- 0 1.0 3.1 27 64
+ 0.87 0 2 cbr 1000 ------- 0 0.0 3.0 37 65
- 0.87 0 2 cbr 1000 ------- 0 0.0 3.0 37 65
- 0.870267 2 3 cbr 1000 ------- 0 1.0 3.1 25 60
r 0.8736 1 2 cbr 1000 ------- 0 1.0 3.1 27 64
+ 0.8736 2 3 cbr 1000 ------- 0 1.0 3.1 27 64
r 0.8736 0 2 cbr 1000 ------- 0 0.0 3.0 37 65
+ 0.8736 2 3 cbr 1000 ------- 0 0.0 3.0 37 65
r 0.874933 2 3 cbr 1000 ------- 0 1.0 3.1 24 58
- 0.8756 2 3 cbr 1000 ------- 0 0.0 3.0 35 61
+ 0.88 1 2 cbr 1000 ------- 0 1.0 3.1 28 66
- 0.88 1 2 cbr 1000 ------- 0 1.0 3.1 28 66
+ 0.88 0 2 cbr 1000 ------- 0 0.0 3.0 38 67
- 0.88 0 2 cbr 1000 ------- 0 0.0 3.0 38 67
r 0.880267 2 3 cbr 1000 ------- 0 0.0 3.0 34 59
- 0.880933 2 3 cbr 1000 ------- 0 1.0 3.1 26 62
r 0.8836 1 2 cbr 1000 ------- 0 1.0 3.1 28 66
+ 0.8836 2 3 cbr 1000 ------- 0 1.0 3.1 28 66
r 0.8836 0 2 cbr 1000 ------- 0 0.0 3.0 38 67
+ 0.8836 2 3 cbr 1000 ------- 0 0.0 3.0 38 67
r 0.8856 2 3 cbr 1000 ------- 0 1.0 3.1 25 60
- 0.886267 2 3 cbr 1000 ------- 0 0.0 3.0 36 63
+ 0.89 1 2 cbr 1000 ------- 0 1.0 3.1 29 68
- 0.89 1 2 cbr 1000 ------- 0 1.0 3.1 29 68
+ 0.89 0 2 cbr 1000 ------- 0 0.0 3.0 39 69
- 0.89 0 2 cbr 1000 ------- 0 0.0 3.0 39 69
r 0.890933 2 3 cbr 1000 ------- 0 0.0 3.0 35 61
- 0.8916 2 3 cbr 1000 ------- 0 1.0 3.1 27 64
r 0.8936 1 2 cbr 1000 ------- 0 1.0 3.1 29 68
+ 0.8936 2 3 cbr 1000 ------- 0 1.0 3.1 29 68
r 0.8936 0 2 cbr 1000 ------- 0 0.0 3.0 39 69
+ 0.8936 2 3 cbr 1000 ------- 0 0.0 3.0 39 69
r 0.896267 2 3 cbr 1000 ------- 0 1.0 3.1 26 62
- 0.896933 2 3 cbr 1000 ------- 0 0.0 3.0 37 65
+ 0.9 1 2 cbr 1000 ------- 0 1.0 3.1 30 70
- 0.9 1 2 cbr 1000 ------- 0 1.0 3.1 30 70
+ 0.9 0 2 cbr 1000 ------- 0 0.0 3.0 40 71
- 0.9 0 2 cbr 1000 ------- 0 0.0 3.0 40 71
r 0.9016 2 3 cbr 1000 ------- 0 0.0 3.0 36 63
- 0.902267 2 3 cbr 1000 ------- 0 1.0 3.1 28 66
r 0.9036 1 2 cbr 1000 ------- 0 1.0 3.1 30 70
+ 0.9036 2 3 cbr 1000 ------- 0 1.0 3.1 30 70
r 0.9036 0 2 cbr 1000 ------- 0 0.0 3.0 40 71
+ 0.9036 2 3 cbr 1000 ------- 0 0.0 3.0 40 71
r 0.906933 2 3 cbr 1000 ------- 0 1.0 3.1 27 64
- 0.9076 2 3 cbr 1000 ------- 0 0.0 3.0 38 67
+ 0.91 1 2 cbr 1000 ------- 0 1.0 3.1 31 72
- 0.91 1 2 cbr 1000 ------- 0 1.0 3.1 31 72
+ 0.91 0 2 cbr 1000 ------- 0 0.0 3.0 41 73
- 0.91 0 2 cbr 1000 ------- 0 0.0 3.0 41 73
r 0.912267 2 3 cbr 1000 ------- 0 0.0 3.0 37 65
- 0.912933 2 3 cbr 1000 ------- 0 1.0 3.1 29 68
r 0.9136 1 2 cbr 1000 ------- 0 1.0 3.1 31 72
+ 0.9136 2 3 cbr 1000 ------- 0 1.0 3.1 31 72
r 0.9136 0 2 cbr 1000 ------- 0 0.0 3.0 41 73
+ 0.9136 2 3 cbr 1000 ------- 0 0.0 3.0 41 73
r 0.9176 2 3 cbr 1000 ------- 0 1.0 3.1 28 66
- 0.918267 2 3 cbr 1000 ------- 0 0.0 3.0 39 69
+ 0.92 1 2 cbr 1000 ------- 0 1.0 3.1 32 74
- 0.92 1 2 cbr 1000 ------- 0 1.0 3.1 32 74
+ 0.92 0 2 cbr 1000 ------- 0 0.0 3.0 42 75
- 0.92 0 2 cbr 1000 ------- 0 0.0 3.0 42 75
r 0.922933 2 3 cbr 1000 ------- 0 0.0 3.0 38 67
- 0.9236 2 3 cbr 1000 ------- 0 1.0 3.1 30 70
r 0.9236 1 2 cbr 1000 ------- 0 1.0 3.1 32 74
+ 0.9236 2 3 cbr 1000 ------- 0 1.0 3.1 32 74
r 0.9236 0 2 cbr 1000 ------- 0 0.0 3.0 42 75
+ 0.9236 2 3 cbr 1000 ------- 0 0.0 3.0 42 75
r 0.928267 2 3 cbr 1000 ------- 0 1.0 3.1 29 68
- 0.928933 2 3 cbr 1000 ------- 0 0.0 3.0 40 71
+ 0.93 1 2 cbr 1000 ------- 0 1.0 3.1 33 76
- 0.93 1 2 cbr 1000 ------- 0 1.0 3.1 33 76
+ 0.93 0 2 cbr 1000 ------- 0 0.0 3.0 43 77
- 0.93 0 2 cbr 1000 ------- 0 0.0 3.0 43 77
r 0.9336 2 3 cbr 1000 ------- 0 0.0 3.0 39 69
r 0.9336 1 2 cbr 1000 ------- 0 1.0 3.1 33 76
+ 0.9336 2 3 cbr 1000 ------- 0 1.0 3.1 33 76
r 0.9336 0 2 cbr 1000 ------- 0 0.0 3.0 43 77
+ 0.9336 2 3 cbr 1000 ------- 0 0.0 3.0 43 77
- 0.934267 2 3 cbr 1000 ------- 0 1.0 3.1 31 72
r 0.938933 2 3 cbr 1000 ------- 0 1.0 3.1 30 70
- 0.9396 2 3 cbr 1000 ------- 0 0.0 3.0 41 73
+ 0.94 1 2 cbr 1000 ------- 0 1.0 3.1 34 78
- 0.94 1 2 cbr 1000 ------- 0 1.0 3.1 34 78
+ 0.94 0 2 cbr 1000 ------- 0 0.0 3.0 44 79
- 0.94 0 2 cbr 1000 ------- 0 0.0 3.0 44 79
r 0.9436 1 2 cbr 1000 ------- 0 1.0 3.1 34 78
+ 0.9436 2 3 cbr 1000 ------- 0 1.0 3.1 34 78
r 0.9436 0 2 cbr 1000 ------- 0 0.0 3.0 44 79
+ 0.9436 2 3 cbr 1000 ------- 0 0.0 3.0 44 79
r 0.944267 2 3 cbr 1000 ------- 0 0.0 3.0 40 71
- 0.944933 2 3 cbr 1000 ------- 0 1.0 3.1 32 74
r 0.9496 2 3 cbr 1000 ------- 0 1.0 3.1 31 72
+ 0.95 1 2 cbr 1000 ------- 0 1.0 3.1 35 80
- 0.95 1 2 cbr 1000 ------- 0 1.0 3.1 35 80
+ 0.95 0 2 cbr 1000 ------- 0 0.0 3.0 45 81
- 0.95 0 2 cbr 1000 ------- 0 0.0 3.0 45 81
- 0.950267 2 3 cbr 1000 ------- 0 0.0 3.0 42 75
r 0.9536 1 2 cbr 1000 ------- 0 1.0 3.1 35 80
+ 0.9536 2 3 cbr 1000 ------- 0 1.0 3.1 35 80
r 0.9536 0 2 cbr 1000 ------- 0 0.0 3.0 45 81
+ 0.9536 2 3 cbr 1000 ------- 0 0.0 3.0 45 81
r 0.954933 2 3 cbr 1000 ------- 0 0.0 3.0 41 73
- 0.9556 2 3 cbr 1000 ------- 0 1.0 3.1 33 76
+ 0.96 1 2 cbr 1000 ------- 0 1.0 3.1 36 82
- 0.96 1 2 cbr 1000 ------- 0 1.0 3.1 36 82
+ 0.96 0 2 cbr 1000 ------- 0 0.0 3.0 46 83
- 0.96 0 2 cbr 1000 ------- 0 0.0 3.0 46 83
r 0.960267 2 3 cbr 1000 ------- 0 1.0 3.1 32 74
- 0.960933 2 3 cbr 1000 ------- 0 0.0 3.0 43 77
r 0.9636 1 2 cbr 1000 ------- 0 1.0 3.1 36 82
+ 0.9636 2 3 cbr 1000 ------- 0 1.0 3.1 36 82
r 0.9636 0 2 cbr 1000 ------- 0 0.0 3.0 46 83
+ 0.9636 2 3 cbr 1000 ------- 0 0.0 3.0 46 83
r 0.9656 2 3 cbr 1000 ------- 0 0.0 3.0 42 75
- 0.966267 2 3 cbr 1000 ------- 0 1.0 3.1 34 78
+ 0.97 1 2 cbr 1000 ------- 0 1.0 3.1 37 84
- 0.97 1 2 cbr 1000 ------- 0 1.0 3.1 37 84
+ 0.97 0 2 cbr 1000 ------- 0 0.0 3.0 47 85
- 0.97 0 2 cbr 1000 ------- 0 0.0 3.0 47 85
r 0.970933 2 3 cbr 1000 ------- 0 1.0 3.1 33 76
- 0.9716 2 3 cbr 1000 ------- 0 0.0 3.0 44 79
r 0.9736 1 2 cbr 1000 ------- 0 1.0 3.1 37 84
+ 0.9736 2 3 cbr 1000 ------- 0 1.0 3.1 37 84
r 0.9736 0 2 cbr 1000 ------- 0 0.0 3.0 47 85
+ 0.9736 2 3 cbr 1000 ------- 0 0.0 3.0 47 85
r 0.976267 2 3 cbr 1000 ------- 0 0.0 3.0 43 77
- 0.976933 2 3 cbr 1000 ------- 0 1.0 3.1 35 80
+ 0.98 1 2 cbr 1000 ------- 0 1.0 3.1 38 86
- 0.98 1 2 cbr 1000 ------- 0 1.0 3.1 38 86
+ 0.98 0 2 cbr 1000 ------- 0 0.0 3.0 48 87
- 0.98 0 2 cbr 1000 ------- 0 0.0 3.0 48 87
r 0.9816 2 3 cbr 1000 ------- 0 1.0 3.1 34 78
- 0.982267 2 3 cbr 1000 ------- 0 0.0 3.0 45 81
r 0.9836 1 2 cbr 1000 ------- 0 1.0 3.1 38 86
+ 0.9836 2 3 cbr 1000 ------- 0 1.0 3.1 38 86
r 0.9836 0 2 cbr 1000 ------- 0 0.0 3.0 48 87
+ 0.9836 2 3 cbr 1000 ------- 0 0.0 3.0 48 87
r 0.986933 2 3 cbr 1000 ------- 0 0.0 3.0 44 79
- 0.9876 2 3 cbr 1000 ------- 0 1.0 3.1 36 82
+ 0.99 1 2 cbr 1000 ------- 0 1.0 3.1 39 88
- 0.99 1 2 cbr 1000 ------- 0 1.0 3.1 39 88
+ 0.99 0 2 cbr 1000 ------- 0 0.0 3.0 49 89
- 0.99 0 2 cbr 1000 ------- 0 0.0 3.0 49 89
r 0.992267 2 3 cbr 1000 ------- 0 1.0 3.1 35 80
- 0.992933 2 3 cbr 1000 ------- 0 0.0 3.0 46 83
r 0.9936 1 2 cbr 1000 ------- 0 1.0 3.1 39 88
+ 0.9936 2 3 cbr 1000 ------- 0 1.0 3.1 39 88
r 0.9936 0 2 cbr 1000 ------- 0 0.0 3.0 49 89
+ 0.9936 2 3 cbr 1000 ------- 0 0.0 3.0 49 89
r 0.9976 2 3 cbr 1000 ------- 0 0.0 3.0 45 81
- 0.998267 2 3 cbr 1000 ------- 0 1.0 3.1 37 84
+ 1 1 2 cbr 1000 ------- 0 1.0 3.1 40 90
- 1 1 2 cbr 1000 ------- 0 1.0 3.1 40 90
+ 1 0 2 cbr 1000 ------- 0 0.0 3.0 50 91
- 1 0 2 cbr 1000 ------- 0 0.0 3.0 50 91
r 1.002933 2 3 cbr 1000 ------- 0 1.0 3.1 36 82
- 1.0036 2 3 cbr 1000 ------- 0 0.0 3.0 47 85
r 1.0036 1 2 cbr 1000 ------- 0 1.0 3.1 40 90
+ 1.0036 2 3 cbr 1000 ------- 0 1.0 3.1 40 90
r 1.0036 0 2 cbr 1000 ------- 0 0.0 3.0 50 91
+ 1.0036 2 3 cbr 1000 ------- 0 0.0 3.0 50 91
r 1.008267 2 3 cbr 1000 ------- 0 0.0 3.0 46 83
- 1.008933 2 3 cbr 1000 ------- 0 1.0 3.1 38 86
+ 1.01 1 2 cbr 1000 ------- 0 1.0 3.1 41 92
- 1.01 1 2 cbr 1000 ------- 0 1.0 3.1 41 92
+ 1.01 0 2 cbr 1000 ------- 0 0.0 3.0 51 93
- 1.01 0 2 cbr 1000 ------- 0 0.0 3.0 51 93
r 1.0136 2 3 cbr 1000 ------- 0 1.0 3.1 37 84
r 1.0136 1 2 cbr 1000 ------- 0 1.0 3.1 41 92
+ 1.0136 2 3 cbr 1000 ------- 0 1.0 3.1 41 92
r 1.0136 0 2 cbr 1000 ------- 0 0.0 3.0 51 93
+ 1.0136 2 3 cbr 1000 ------- 0 0.0 3.0 51 93
- 1.014267 2 3 cbr 1000 ------- 0 0.0 3.0 48 87
r 1.018933 2 3 cbr 1000 ------- 0 0.0 3.0 47 85
- 1.0196 2 3 cbr 1000 ------- 0 1.0 3.1 39 88
+ 1.02 1 2 cbr 1000 ------- 0 1.0 3.1 42 94
- 1.02 1 2 cbr 1000 ------- 0 1.0 3.1 42 94
+ 1.02 0 2 cbr 1000 ------- 0 0.0 3.0 52 95
- 1.02 0 2 cbr 1000 ------- 0 0.0 3.0 52 95
r 1.0236 1 2 cbr 1000 ------- 0 1.0 3.1 42 94
+ 1.0236 2 3 cbr 1000 ------- 0 1.0 3.1 42 94
r 1.0236 0 2 cbr 1000 ------- 0 0.0 3.0 52 95
+ 1.0236 2 3 cbr 1000 ------- 0 0.0 3.0 52 95
r 1.024267 2 3 cbr 1000 ------- 0 1.0 3.1 38 86
- 1.024933 2 3 cbr 1000 ------- 0 0.0 3.0 49 89
r 1.0296 2 3 cbr 1000 ------- 0 0.0 3.0 48 87
+ 1.03 1 2 cbr 1000 ------- 0 1.0 3.1 43 96
- 1.03 1 2 cbr 1000 ------- 0 1.0 3.1 43 96
+ 1.03 0 2 cbr 1000 ------- 0 0.0 3.0 53 97
- 1.03 0 2 cbr 1000 ------- 0 0.0 3.0 53 97
- 1.030267 2 3 cbr 1000 ------- 0 1.0 3.1 40 90
r 1.0336 1 2 cbr 1000 ------- 0 1.0 3.1 43 96
+ 1.0336 2 3 cbr 1000 ------- 0 1.0 3.1 43 96
r 1.0336 0 2 cbr 1000 ------- 0 0.0 3.0 53 97
+ 1.0336 2 3 cbr 1000 ------- 0 0.0 3.0 53 97
r 1.034933 2 3 cbr 1000 ------- 0 1.0 3.1 39 88
- 1.0356 2 3 cbr 1000 ------- 0 0.0 3.0 50 91
+ 1.04 1 2 cbr 1000 ------- 0 1.0 3.1 44 98
- 1.04 1 2 cbr 1000 ------- 0 1.0 3.1 44 98
+ 1.04 0 2 cbr 1000 ------- 0 0.0 3.0 54 99
- 1.04 0 2 cbr 1000 ------- 0 0.0 3.0 54 99
r 1.040267 2 3 cbr 1000 ------- 0 0.0 3.0 49 89
- 1.040933 2 3 cbr 1000 ------- 0 1.0 3.1 41 92
r 1.0436 1 2 cbr 1000 ------- 0 1.0 3.1 44 98
+ 1.0436 2 3 cbr 1000 ------- 0 1.0 3.1 44 98
r 1.0436 0 2 cbr 1000 ------- 0 0.0 3.0 54 99
+ 1.0436 2 3 cbr 1000 ------- 0 0.0 3.0 54 99
r 1.0456 2 3 cbr 1000 ------- 0 1.0 3.1 40 90
- 1.046267 2 3 cbr 1000 ------- 0 0.0 3.0 51 93
+ 1.05 1 2 cbr 1000 ------- 0 1.0 3.1 45 100
- 1.05 1 2 cbr 1000 ------- 0 1.0 3.1 45 100
+ 1.05 0 2 cbr 1000 ------- 0 0.0 3.0 55 101
- 1.05 0 2 cbr 1000 ------- 0 0.0 3.0 55 101
r 1.050933 2 3 cbr 1000 ------- 0 0.0 3.0 50 91
- 1.0516 2 3 cbr 1000 ------- 0 1.0 3.1 42 94
r 1.0536 1 2 cbr 1000 ------- 0 1.0 3.1 45 100
+ 1.0536 2 3 cbr 1000 ------- 0 1.0 3.1 45 100
r 1.0536 0 2 cbr 1000 ------- 0 0.0 3.0 55 101
+ 1.0536 2 3 cbr 1000 ------- 0 0.0 3.0 55 101
r 1.056267 2 3 cbr 1000 ------- 0 1.0 3.1 41 92
- 1.056933 2 3 cbr 1000 ------- 0 0.0 3.0 52 95
+ 1.06 1 2 cbr 1000 ------- 0 1.0 3.1 46 102
- 1.06 1 2 cbr 1000 ------- 0 1.0 3.1 46 102
+ 1.06 0 2 cbr 1000 ------- 0 0.0 3.0 56 103
- 1.06 0 2 cbr 1000 ------- 0 0.0 3.0 56 103
r 1.0616 2 3 cbr 1000 ------- 0 0.0 3.0 51 93
- 1.062267 2 3 cbr 1000 ------- 0 1.0 3.1 43 96
r 1.0636 1 2 cbr 1000 ------- 0 1.0 3.1 46 102
+ 1.0636 2 3 cbr 1000 ------- 0 1.0 3.1 46 102
r 1.0636 0 2 cbr 1000 ------- 0 0.0 3.0 56 103
+ 1.0636 2 3 cbr 1000 ------- 0 0.0 3.0 56 103
r 1.066933 2 3 cbr 1000 ------- 0 1.0 3.1 42 94
- 1.0676 2 3 cbr 1000 ------- 0 0.0 3.0 53 97
+ 1.07 1 2 cbr 1000 ------- 0 1.0 3.1 47 104
- 1.07 1 2 cbr 1000 ------- 0 1.0 3.1 47 104
+ 1.07 0 2 cbr 1000 ------- 0 0.0 3.0 57 105
- 1.07 0 2 cbr 1000 ------- 0 0.0 3.0 57 105
r 1.072267 2 3 cbr 1000 ------- 0 0.0 3.0 52 95
- 1.072933 2 3 cbr 1000 ------- 0 1.0 3.1 44 98
r 1.0736 1 2 cbr 1000 ------- 0 1.0 3.1 47 104
+ 1.0736 2 3 cbr 1000 ------- 0 1.0 3.1 47 104
r 1.0736 0 2 cbr 1000 ------- 0 0.0 3.0 57 105
+ 1.0736 2 3 cbr 1000 ------- 0 0.0 3.0 57 105
r 1.0776 2 3 cbr 1000 ------- 0 1.0 3.1 43 96
- 1.078267 2 3 cbr 1000 ------- 0 0.0 3.0 54 99
+ 1.08 1 2 cbr 1000 ------- 0 1.0 3.1 48 106
- 1.08 1 2 cbr 1000 ------- 0 1.0 3.1 48 106
+ 1.08 0 2 cbr 1000 ------- 0 0.0 3.0 58 107
- 1.08 0 2 cbr 1000 ------- 0 0.0 3.0 58 107
r 1.082933 2 3 cbr 1000 ------- 0 0.0 3.0 53 97
- 1.0836 2 3 cbr 1000 ------- 0 1.0 3.1 45 100
r 1.0836 1 2 cbr 1000 ------- 0 1.0 3.1 48 106
+ 1.0836 2 3 cbr 1000 ------- 0 1.0 3.1 48 106
r 1.0836 0 2 cbr 1000 ------- 0 0.0 3.0 58 107
+ 1.0836 2 3 cbr 1000 ------- 0 0.0 3.0 58 107
r 1.088267 2 3 cbr 1000 ------- 0 1.0 3.1 44 98
- 1.088933 2 3 cbr 1000 ------- 0 0.0 3.0 55 101
+ 1.09 1 2 cbr 1000 ------- 0 1.0 3.1 49 108
- 1.09 1 2 cbr 1000 ------- 0 1.0 3.1 49 108
+ 1.09 0 2 cbr 1000 ------- 0 0.0 3.0 59 109
- 1.09 0 2 cbr 1000 ------- 0 0.0 3.0 59 109
r 1.0936 2 3 cbr 1000 ------- 0 0.0 3.0 54 99
r 1.0936 1 2 cbr 1000 ------- 0 1.0 3.1 49 108
+ 1.0936 2 3 cbr 1000 ------- 0 1.0 3.1 49 108
r 1.0936 0 2 cbr 1000 ------- 0 0.0 3.0 59 109
+ 1.0936 2 3 cbr 1000 ------- 0 0.0 3.0 59 109
- 1.094267 2 3 cbr 1000 ------- 0 1.0 3.1 46 102
r 1.098933 2 3 cbr 1000 ------- 0 1.0 3.1 45 100
- 1.0996 2 3 cbr 1000 ------- 0 0.0 3.0 56 103
+ 1.1 1 2 cbr 1000 ------- 0 1.0 3.1 50 110
- 1.1 1 2 cbr 1000 ------- 0 1.0 3.1 50 110
+ 1.1 0 2 cbr 1000 ------- 0 0.0 3.0 60 111
- 1.1 0 2 cbr 1000 ------- 0 0.0 3.0 60 111
r 1.1036 1 2 cbr 1000 ------- 0 1.0 3.1 50 110
+ 1.1036 2 3 cbr 1000 ------- 0 1.0 3.1 50 110
r 1.1036 0 2 cbr 1000 ------- 0 0.0 3.0 60 111
+ 1.1036 2 3 cbr 1000 ------- 0 0.0 3.0 60 111
r 1.104267 2 3 cbr 1000 ------- 0 0.0 3.0 55 101
- 1.104933 2 3 cbr 1000 ------- 0 1.0 3.1 47 104
r 1.1096 2 3 cbr 1000 ------- 0 1.0 3.1 46 102
+ 1.11 1 2 cbr 1000 ------- 0 1.0 3.1 51 112
- 1.11 1 2 cbr 1000 ------- 0 1.0 3.1 51 112
+ 1.11 0 2 cbr 1000 ------- 0 0.0 3.0 61 113