V -t * -v 1.0a5 -a 0
A -t * -n 1 -p 0 -o 0x7fffffff -c 30 -a 1
A -t * -h 1 -m 1073741823 -s 0
c -t * -i 0 -n Blue
c -t * -i 1 -n Red
c -t * -i 2 -n Yellow
c -t * -i 3 -n Green
n -t * -a 0 -s 0 -S UP -v circle -c black -i black
n -t * -a 1 -s 1 -S UP -v circle -c black -i black
n -t * -a 2 -s 2 -S UP -v circle -c black -i black
n -t * -a 3 -s 3 -S UP -v circle -c black -i black
l -t * -s 0 -d 2 -S UP -r 5000000 -D 0.002 -c black -o right-up
l -t * -s 1 -d 2 -S UP -r 5000000 -D 0.002 -c black -o right-down
l -t * -s 2 -d 3 -S UP -r 1500000 -D 0.01 -c black -o right
q -t * -s 3 -d 2 -a 0.5
q -t * -s 2 -d 3 -a 0.5
+ -t 0.5 -s 0 -d 2 -p cbr -e 1000 -c 0 -i 0 -a 0 -x {0.0 3.0 0 ------- null}
- -t 0.5 -s 0 -d 2 -p cbr -e 1000 -c 0 -i 0 -a 0 -x {0.0 3.0 0 ------- null}
h -t 0.5 -s 0 -d 2 -p cbr -e 1000 -c 0 -i 0 -a 0 -x {0.0 3.0 -1 ------- null}
r -t 0.5036 -s 0 -d 2 -p cbr -e 1000 -c 0 -i 0 -a 0 -x {0.0 3.0 0 ------- null}
+ -t 0.5036 -s 2 -d 3 -p cbr -e 1000 -c 0 -i 0 -a 0 -x {0.0 3.0 0 ------- null}
- -t 0.5036 -s 2 -d 3 -p cbr -e 1000 -c 0 -i 0 -a 0 -x {0.0 3.0 0 ------- null}
h -t 0.5036 -s 2 -d 3 -p cbr -e 1000 -c 0 -i 0 -a 0 -x {0.0 3.0 -1 ------- null}
+ -t 0.51 -s 0 -d 2 -p cbr -e 1000 -c 0 -i 1 -a 0 -x {0.0 3.0 1 ------- null}
- -t 0.51 -s 0 -d 2 -p cbr -e 1000 -c 0 -i 1 -a 0 -x {0.0 3.0 1 ------- null}
h -t 0.51 -s 0 -d 2 -p cbr -e 1000 -c 0 -i 1 -a 0 -x {0.0 3.0 -1 ------- null}
r -t 0.5136 -s 0 -d 2 -p cbr -e 1000 -c 0 -i 1 -a 0 -x {0.0 3.0 1 ------- null}
+ -t 0.5136 -s 2 -d 3 -p cbr -e 1000 -c 0 -i 1 -a 0 -x {0.0 3.0 1 ------- null}
- -t 0.5136 -s 2 -d 3 -p cbr -e 1000 -c 0 -i 1 -a 0 -x {0.0 3.0 1 ------- null}
h -t 0.5136 -s 2 -d 3 -p cbr -e 1000 -c 0 -i 1 -a 0 -x {0.0 3.0 -1 ------- null}
r -t 0.518933333333333 -s 2 -d 3 -p cbr -e 1000 -c 0 -i 0 -a 0 -x {0.0 3.0 0 ------- null}
+ -t 0.52 -s 0 -d 2 -p cbr -e 1000 -c 0 -i 2 -a 0 -x {0.0 3.0 2 ------- null}
- -t 0.52 -s 0 -d 2 -p cbr -e 1000 -c 0 -i 2 -a 0 -x {0.0 3.0 2 ------- null}
h -t 0.52 -s 0 -d 2 -p cbr -e 1000 -c 0 -i 2 -a 0 -x {0.0 3.0 -1 ------- null}
r -t 0.5236 -s 0 -d 2 -p cbr -e 1000 -c 0 -i 2 -a 0 -x {0.0 3.0 2 ------- null}
+ -t 0.5236 -s 2 -d 3 -p cbr -e 1000 -c 0 -i 2 -a 0 -x {0.0 3.0 2 ------- null}
- -t 0.5236 -s 2 -d 3 -p cbr -e 1000 -c 0 -i 2 -a 0 -x {0.0 3.0 2 ------- null}
h -t 0.5236 -s 2 -d 3 -p cbr -e 1000 -c 0 -i 2 -a 0 -x {0.0 3.0 -1 ------- null}
r -t 0.528933333333333 -s 2 -d 3 -p cbr -e 1000 -c 0 -i 1 -a 0 -x {0.0 3.0 1 ------- null}
+ -t 0.53 -s 0 -d 2 -p cbr -e 1000 -c 0 -i 3 -a 0 -x {0.0 3.0 3 ------- null}
- -t 0.53 -s 0 -d 2 -p cbr -e 1000 -c 0 -i 3 -a 0 -x {0.0 3.0 3 ------- null}
h -t 0.53 -s 0 -d 2 -p cbr -e 1000 -c 0 -i 3 -a 0 -x {0.0 3.0 -1 ------- null}
r -t 0.5336 -s 0 -d 2 -p cbr -e 1000 -c 0 -i 3 -a 0 -x {0.0 3.0 3 ------- null}
+ -t 0.5336 -s 2 -d 3 -p cbr -e 1000 -c 0 -i 3 -a 0 -x {0.0 3.0 3 ------- null}
- -t 0.5336 -s 2 -d 3 -p cbr -e 1000 -c 0 -i 3 -a 0 -x {0.0 3.0 3 ------- null}
h -t 0.5336 -s 2 -d 3 -p cbr -e 1000 -c 0 -i 3 -a 0 -x {0.0 3.0 -1 ------- null}
r -t 0.538933333333333 -s 2 -d 3 -p cbr -e 1000 -c 0 -i 2 -a 0 -x {0.0 3.0 2 ------- null}
+ -t 0.54 -s 0 -d 2 -p cbr -e 1000 -c 0 -i 4 -a 0 -x {0.0 3.0 4 ------- null}
- -t 0.54 -s 0 -d 2 -p cbr -e 1000 -c 0 -i 4 -a 0 -x {0.0 3.0 4 ------- null}
h -t 0.54 -s 0 -d 2 -p cbr -e 1000 -c 0 -i 4 -a 0 -x {0.0 3.0 -1 ------- null}
r -t 0.5436 -s 0 -d 2 -p cbr -e 1000 -c 0 -i 4 -a 0 -x {0.0 3.0 4 ------- null}
+ -t 0.5436 -s 2 -d 3 -p cbr -e 1000 -c 0 -i 4 -a 0 -x {0.0 3.0 4 ------- null}
- -t 0.5436 -s 2 -d 3 -p cbr -e 1000 -c 0 -i 4 -a 0 -x {0.0 3.0 4 ------- null}
h -t 0.5436 -s 2 -d 3 -p cbr -e 1000 -c 0 -i 4 -a 0 -x {0.0 3.0 -1 ------- null}
r -t 0.548933333333333 -s 2 -d 3 -p cbr -e 1000 -c 0 -i 3 -a 0 -x {0.0 3.0 3 ------- null}
+ -t 0.55 -s 0 -d 2 -p cbr -e 1000 -c 0 -i 5 -a 0 -x {0.0 3.0 5 ------- null}
- -t 0.55 -s 0 -d 2 -p cbr -e 1000 -c 0 -i 5 -a 0 -x {0.0 3.0 5 ------- null}
h -t 0.55 -s 0 -d 2 -p cbr -e 1000 -c 0 -i 5 -a 0 -x {0.0 3.0 -1 ------- null}
r -t 0.5536 -s 0 -d 2 -p cbr -e 1000 -c 0 -i 5 -a 0 -x {0.0 3.0 5 ------- null}
+ -t 0.5536 -s 2 -d 3 -p cbr -e 1000 -c 0 -i 5 -a 0 -x {0.0 3.0 5 ------- null}
- -t 0.5536 -s 2 -d 3 -p cbr -e 1000 -c 0 -i 5 -a 0 -x {0.0 3.0 5 ------- null}
h -t 0.5536 -s 2 -d 3 -p cbr -e 1000 -c 0 -i 5 -a 0 -x {0.0 3.0 -1 ------- null}
r -t 0.558933333333333 -s 2 -d 3 -p cbr -e 1000 -c 0 -i 4 -a 0 -x {0.0 3.0 4 ------- null}
+ -t 0.56 -s 0 -d 2 -p cbr -e 1000 -c 0 -i 6 -a 0 -x {0.0 3.0 6 ------- null}
- -t 0.56 -s 0 -d 2 -p cbr -e 1000 -c 0 -i 6 -a 0 -x {0.0 3.0 6 ------- null}
h -t 0.56 -s 0 -d 2 -p cbr -e 1000 -c 0 -i 6 -a 0 -x {0.0 3.0 -1 ------- null}
r -t 0.5636 -s 0 -d 2 -p cbr -e 1000 -c 0 -i 6 -a 0 -x {0.0 3.0 6 ------- null}
+ -t 0.5636 -s 2 -d 3 -p cbr -e 1000 -c 0 -i 6 -a 0 -x {0.0 3.0 6 ------- null}
- -t 0.5636 -s 2 -d 3 -p cbr -e 1000 -c 0 -i 6 -a 0 -x {0.0 3.0 6 ------- null}
h -t 0.5636 -s 2 -d 3 -p cbr -e 1000 -c 0 -i 6 -a 0 -x {0.0 3.0 -1 ------- null}
r -t 0.568933333333333 -s 2 -d 3 -p cbr -e 1000 -c 0 -i 5 -a 0 -x {0.0 3.0 5 ------- null}
+ -t 0.57 -s 0 -d 2 -p cbr -e 1000 -c 0 -i 7 -a 0 -x {0.0 3.0 7 ------- null}
- -t 0.57 -s 0 -d 2 -p cbr -e 1000 -c 0 -i 7 -a 0 -x {0.0 3.0 7 ------- null}
h -t 0.57 -s 0 -d 2 -p cbr -e 1000 -c 0 -i 7 -a 0 -x {0.0 3.0 -1 ------- null}
r -t 0.5736 -s 0 -d 2 -p cbr -e 1000 -c 0 -i 7 -a 0 -x {0.0 3.0 7 ------- null}
+ -t 0.5736 -s 2 -d 3 -p cbr -e 1000 -c 0 -i 7 -a 0 -x {0.0 3.0 7 ------- null}
- -t 0.5736 -s 2 -d 3 -p cbr -e 1000 -c 0 -i 7 -a 0 -x {0.0 3.0 7 ------- null}
h -t 0.5736 -s 2 -d 3 -p cbr -e 1000 -c 0 -i 7 -a 0 -x {0.0 3.0 -1 ------- null}
r -t 0.578933333333333 -s 2 -d 3 -p cbr -e 1000 -c 0 -i 6 -a 0 -x {0.0 3.0 6 ------- null}
+ -t 0.58 -s 0 -d 2 -p cbr -e 1000 -c 0 -i 8 -a 0 -x {0.0 3.0 8 ------- null}
- -t 0.58 -s 0 -d 2 -p cbr -e 1000 -c 0 -i 8 -a 0 -x {0.0 3.0 8 ------- null}
h -t 0.58 -s 0 -d 2 -p cbr -e 1000 -c 0 -i 8 -a 0 -x {0.0 3.0 -1 ------- null}
r -t 0.5836 -s 0 -d 2 -p cbr -e 1000 -c 0 -i 8 -a 0 -x {0.0 3.0 8 ------- null}
+ -t 0.5836 -s 2 -d 3 -p cbr -e 1000 -c 0 -i 8 -a 0 -x {0.0 3.0 8 ------- null}
- -t 0.5836 -s 2 -d 3 -p cbr -e 1000 -c 0 -i 8 -a 0 -x {0.0 3.0 8 ------- null}
h -t 0.5836 -s 2 -d 3 -p cbr -e 1000 -c 0 -i 8 -a 0 -x {0.0 3.0 -1 ------- null}
r -t 0.588933333333333 -s 2 -d 3 -p cbr -e 1000 -c 0 -i 7 -a 0 -x {0.0 3.0 7 ------- null}
+ -t 0.59 -s 0 -d 2 -p cbr -e 1000 -c 0 -i 9 -a 0 -x {0.0 3.0 9 ------- null}
- -t 0.59 -s 0 -d 2 -p cbr -e 1000 -c 0 -i 9 -a 0 -x {0.0 3.0 9 ------- null}
h -t 0.59 -s 0 -d 2 -p cbr -e 1000 -c 0 -i 9 -a 0 -x {0.0 3.0 -1 ------- null}
r -t 0.5936 -s 0 -d 2 -p cbr -e 1000 -c 0 -i 9 -a 0 -x {0.0 3.0 9 ------- null}
+ -t 0.5936 -s 2 -d 3 -p cbr -e 1000 -c 0 -i 9 -a 0 -x {0.0 3.0 9 ------- null}
- -t 0.5936 -s 2 -d 3 -p cbr -e 1000 -c 0 -i 9 -a 0 -x {0.0 3.0 9 ------- null}
h -t 0.5936 -s 2 -d 3 -p cbr -e 1000 -c 0 -i 9 -a 0 -x {0.0 3.0 -1 ------- null}
r -t 0.598933333333333 -s 2 -d 3 -p cbr -e 1000 -c 0 -i 8 -a 0 -x {0.0 3.0 8 ------- null}
+ -t 0.6 -s 1 -d 2 -p cbr -e 1000 -c 0 -i 10 -a 0 -x {1.0 3.1 0 ------- null}
- -t 0.6 -s 1 -d 2 -p cbr -e 1000 -c 0 -i 10 -a 0 -x {1.0 3.1 0 ------- null}
h -t 0.6 -s 1 -d 2 -p cbr -e 1000 -c 0 -i 10 -a 0 -x {1.0 3.1 -1 ------- null}
+ -t 0.6 -s 0 -d 2 -p cbr -e 1000 -c 0 -i 11 -a 0 -x {0.0 3.0 10 ------- null}
- -t 0.6 -s 0 -d 2 -p cbr -e 1000 -c 0 -i 11 -a 0 -x {0.0 3.0 10 ------- null}
h -t 0.6 -s 0 -d 2 -p cbr -e 1000 -c 0 -i 11 -a 0 -x {0.0 3.0 -1 ------- null}
r -t 0.6036 -s 1 -d 2 -p cbr -e 1000 -c 0 -i 10 -a 0 -x {1.0 3.1 0 ------- null}
+ -t 0.6036 -s 2 -d 3 -p cbr -e 1000 -c 0 -i 10 -a 0 -x {1.0 3.1 0 ------- null}
- -t 0.6036 -s 2 -d 3 -p cbr -e 1000 -c 0 -i 10 -a 0 -x {1.0 3.1 0 ------- null}
h -t 0.6036 -s 2 -d 3 -p cbr -e 1000 -c 0 -i 10 -a 0 -x {1.0 3.1 -1 ------- null}
r -t 0.6036 -s 0 -d 2 -p cbr -e 1000 -c 0 -i 11 -a 0 -x {0.0 3.0 10 ------- null}
+ -t 0.6036 -s 2 -d 3 -p cbr -e 1000 -c 0 -i 11 -a 0 -x {0.0 3.0 10 ------- null}
- -t 0.608933333333333 -s 2 -d 3 -p cbr -e 1000 -c 0 -i 11 -a 0 -x {0.0 3.0 10 ------- null}
h -t 0.608933333333333 -s 2 -d 3 -p cbr -e 1000 -c 0 -i 11 -a 0 -x {0.0 3.0 -1 ------- null}
r -t 0.608933333333333 -s 2 -d 3 -p cbr -e 1000 -c 0 -i 9 -a 0 -x {0.0 3.0 9 ------- null}
+ -t 0.61 -s 1 -d 2 -p cbr -e 1000 -c 0 -i 12 -a 0 -x {1.0 3.1 1 ------- null}
- -t 0.61 -s 1 -d 2 -p cbr -e 1000 -c 0 -i 12 -a 0 -x {1.0 3.1 1 ------- null}
h -t 0.61 -s 1 -d 2 -p cbr -e 1000 -c 0 -i 12 -a 0 -x {1.0 3.1 -1 ------- null}
+ -t 0.61 -s 0 -d 2 -p cbr -e 1000 -c 0 -i 13 -a 0 -x {0.0 3.0 11 ------- null}
- -t 0.61 -s 0 -d 2 -p cbr -e 1000 -c 0 -i 13 -a 0 -x {0.0 3.0 11 ------- null}
h -t 0.61 -s 0 -d 2 -p cbr -e 1000 -c 0 -i 13 -a 0 -x {0.0 3.0 -1 ------- null}
r -t 0.6136 -s 1 -d 2 -p cbr -e 1000 -c 0 -i 12 -a 0 -x {1.0 3.1 1 ------- null}
+ -t 0.6136 -s 2 -d 3 -p cbr -e 1000 -c 0 -i 12 -a 0 -x {1.0 3.1 1 ------- null}
r -t 0.6136 -s 0 -d 2 -p cbr -e 1000 -c 0 -i 13 -a 0 -x {0.0 3.0 11 ------- null}
+ -t 0.6136 -s 2 -d 3 -p cbr -e 1000 -c 0 -i 13 -a 0 -x {0.0 3.0 11 ------- null}
- -t 0.614266666666667 -s 2 -d 3 -p cbr -e 1000 -c 0 -i 12 -a 0 -x {1.0 3.1 1 ------- null}
h -t 0.614266666666667 -s 2 -d 3 -p cbr -e 1000 -c 0 -i 12 -a 0 -x {1.0 3.1 -1 ------- null}
r -t 0.618933333333333 -s 2 -d 3 -p cbr -e 1000 -c 0 -i 10 -a 0 -x {1.0 3.1 0 ------- null}
- -t 0.6196 -s 2 -d 3 -p cbr -e 1000 -c 0 -i 13 -a 0 -x {0.0 3.0 11 ------- null}
h -t 0.6196 -s 2 -d 3 -p cbr -e 1000 -c 0 -i 13 -a 0 -x {0.0 3.0 -1 ------- null}
+ -t 0.62 -s 1 -d 2 -p cbr -e 1000 -c 0 -i 14 -a 0 -x {1.0 3.1 2 ------- null}
- -t 0.62 -s 1 -d 2 -p cbr -e 1000 -c 0 -i 14 -a 0 -x {1.0 3.1 2 ------- null}
h -t 0.62 -s 1 -d 2 -p cbr -e 1000 -c 0 -i 14 -a 0 -x {1.0 3.1 -1 ------- null}
+ -t 0.62 -s 0 -d 2 -p cbr -e 1000 -c 0 -i 15 -a 0 -x {0.0 3.0 12 ------- null}
- -t 0.62 -s 0 -d 2 -p cbr -e 1000 -c 0 -i 15 -a 0 -x {0.0 3.0 12 ------- null}
h -t 0.62 -s 0 -d 2 -p cbr -e 1000 -c 0 -i 15 -a 0 -x {0.0 3.0 -1 ------- null}
r -t 0.6236 -s 1 -d 2 -p cbr -e 1000 -c 0 -i 14 -a 0 -x {1.0 3.1 2 ------- null}
+ -t 0.6236 -s 2 -d 3 -p cbr -e 1000 -c 0 -i 14 -a 0 -x {1.0 3.1 2 ------- null}
r -t 0.6236 -s 0 -d 2 -p cbr -e 1000 -c 0 -i 15 -a 0 -x {0.0 3.0 12 ------- null}
+ -t 0.6236 -s 2 -d 3 -p cbr -e 1000 -c 0 -i 15 -a 0 -x {0.0 3.0 12 ------- null}
r -t 0.624266666666667 -s 2 -d 3 -p cbr -e 1000 -c 0 -i 11 -a 0 -x {0.0 3.0 10 ------- null}
- -t 0.624933333333333 -s 2 -d 3 -p cbr -e 1000 -c 0 -i 14 -a 0 -x {1.0 3.1 2 ------- null}
h -t 0.624933333333333 -s 2 -d 3 -p cbr -e 1000 -c 0 -i 14 -a 0 -x {1.0 3.1 -1 ------- null}
r -t 0.6296 -s 2 -d 3 -p cbr -e 1000 -c 0 -i 12 -a 0 -x {1.0 3.1 1 ------- null}
+ -t 0.63 -s 1 -d 2 -p cbr -e 1000 -c 0 -i 16 -a 0 -x {1.0 3.1 3 ------- null}
- -t 0.63 -s 1 -d 2 -p cbr -e 1000 -c 0 -i 16 -a 0 -x {1.0 3.1 3 ------- null}
h -t 0.63 -s 1 -d 2 -p cbr -e 1000 -c 0 -i 16 -a 0 -x {1.0 3.1 -1 ------- null}
+ -t 0.63 -s 0 -d 2 -p cbr -e 1000 -c 0 -i 17 -a 0 -x {0.0 3.0 13 ------- null}
- -t 0.63 -s 0 -d 2 -p cbr -e 1000 -c 0 -i 17 -a 0 -x {0.0 3.0 13 ------- null}
h -t 0.63 -s 0 -d 2 -p cbr -e 1000 -c 0 -i 17 -a 0 -x {0.0 3.0 -1 ------- null}
- -t 0.630266666666667 -s 2 -d 3 -p cbr -e 1000 -c 0 -i 15 -a 0 -x {0.0 3.0 12 ------- null}
h -t 0.630266666666667 -s 2 -d 3 -p cbr -e 1000 -c 0 -i 15 -a 0 -x {0.0 3.0 -1 ------- null}
r -t 0.6336 -s 1 -d 2 -p cbr -e 1000 -c 0 -i 16 -a 0 -x {1.0 3.1 3 ------- null}
+ -t 0.6336 -s 2 -d 3 -p cbr -e 1000 -c 0 -i 16 -a 0 -x {1.0 3.1 3 ------- null}
r -t 0.6336 -s 0 -d 2 -p cbr -e 1000 -c 0 -i 17 -a 0 -x {0.0 3.0 13 ------- null}
+ -t 0.6336 -s 2 -d 3 -p cbr -e 1000 -c 0 -i 17 -a 0 -x {0.0 3.0 13 ------- null}
r -t 0.634933333333333 -s 2 -d 3 -p cbr -e 1000 -c 0 -i 13 -a 0 -x {0.0 3.0 11 ------- null}
- -t 0.6356 -s 2 -d 3 -p cbr -e 1000 -c 0 -i 16 -a 0 -x {1.0 3.1 3 ------- null}
h -t 0.6356 -s 2 -d 3 -p cbr -e 1000 -c 0 -i 16 -a 0 -x {1.0 3.1 -1 ------- null}
+ -t 0.64 -s 1 -d 2 -p cbr -e 1000 -c 0 -i 18 -a 0 -x {1.0 3.1 4 ------- null}
- -t 0.64 -s 1 -d 2 -p cbr -e 1000 -c 0 -i 18 -a 0 -x {1.0 3.1 4 ------- null}
h -t 0.64 -s 1 -d 2 -p cbr -e 1000 -c 0 -i 18 -a 0 -x {1.0 3.1 -1 ------- null}
+ -t 0.64 -s 0 -d 2 -p cbr -e 1000 -c 0 -i 19 -a 0 -x {0.0 3.0 14 ------- null}
- -t 0.64 -s 0 -d 2 -p cbr -e 1000 -c 0 -i 19 -a 0 -x {0.0 3.0 14 ------- null}
h -t 0.64 -s 0 -d 2 -p cbr -e 1000 -c 0 -i 19 -a 0 -x {0.0 3.0 -1 ------- null}
r -t 0.640266666666667 -s 2 -d 3 -p cbr -e 1000 -c 0 -i 14 -a 0 -x {1.0 3.1 2 ------- null}
- -t 0.640933333333333 -s 2 -d 3 -p cbr -e 1000 -c 0 -i 17 -a 0 -x {0.0 3.0 13 ------- null}
h -t 0.640933333333333 -s 2 -d 3 -p cbr -e 1000 -c 0 -i 17 -a 0 -x {0.0 3.0 -1 ------- null}
r -t 0.6436 -s 1 -d 2 -p cbr -e 1000 -c 0 -i 18 -a 0 -x {1.0 3.1 4 ------- null}
+ -t 0.6436 -s 2 -d 3 -p cbr -e 1000 -c 0 -i 18 -a 0 -x {1.0 3.1 4 ------- null}
r -t 0.6436 -s 0 -d 2 -p cbr -e 1000 -c 0 -i 19 -a 0 -x {0.0 3.0 14 ------- null}
+ -t 0.6436 -s 2 -d 3 -p cbr -e 1000 -c 0 -i 19 -a 0 -x {0.0 3.0 14 ------- null}
r -t 0.6456 -s 2 -d 3 -p cbr -e 1000 -c 0 -i 15 -a 0 -x {0.0 3.0 12 ------- null}
- -t 0.646266666666666 -s 2 -d 3 -p cbr -e 1000 -c 0 -i 18 -a 0 -x {1.0 3.1 4 ------- null}
h -t 0.646266666666666 -s 2 -d 3 -p cbr -e 1000 -c 0 -i 18 -a 0 -x {1.0 3.1 -1 ------- null}
+ -t 0.65 -s 1 -d 2 -p cbr -e 1000 -c 0 -i 20 -a 0 -x {1.0 3.1 5 ------- null}
- -t 0.65 -s 1 -d 2 -p cbr -e 1000 -c 0 -i 20 -a 0 -x {1.0 3.1 5 ------- null}
h -t 0.65 -s 1 -d 2 -p cbr -e 1000 -c 0 -i 20 -a 0 -x {1.0 3.1 -1 ------- null}
+ -t 0.65 -s 0 -d 2 -p cbr -e 1000 -c 0 -i 21 -a 0 -x {0.0 3.0 15 ------- null}
- -t 0.65 -s 0 -d 2 -p cbr -e 1000 -c 0 -i 21 -a 0 -x {0.0 3.0 15 ------- null}
h -t 0.65 -s 0 -d 2 -p cbr -e 1000 -c 0 -i 21 -a 0 -x {0.0 3.0 -1 ------- null}
r -t 0.650933333333333 -s 2 -d 3 -p cbr -e 1000 -c 0 -i 16 -a 0 -x {1.0 3.1 3 ------- null}
- -t 0.6516 -s 2 -d 3 -p cbr -e 1000 -c 0 -i 19 -a 0 -x {0.0 3.0 14 ------- null}
h -t 0.6516 -s 2 -d 3 -p cbr -e 1000 -c 0 -i 19 -a 0 -x {0.0 3.0 -1 ------- null}
r -t 0.6536 -s 1 -d 2 -p cbr -e 1000 -c 0 -i 20 -a 0 -x {1.0 3.1 5 ------- null}
+ -t 0.6536 -s 2 -d 3 -p cbr -e 1000 -c 0 -i 20 -a 0 -x {1.0 3.1 5 ------- null}
r -t 0.6536 -s 0 -d 2 -p cbr -e 1000 -c 0 -i 21 -a 0 -x {0.0 3.0 15 ------- null}
+ -t 0.6536 -s 2 -d 3 -p cbr -e 1000 -c 0 -i 21 -a 0 -x {0.0 3.0 15 ------- null}
r -t 0.656266666666666 -s 2 -d 3 -p cbr -e 1000 -c 0 -i 17 -a 0 -x {0.0 3.0 13 ------- null}
- -t 0.656933333333333 -s 2 -d 3 -p cbr -e 1000 -c 0 -i 20 -a 0 -x {1.0 3.1 5 ------- null}
h -t 0.656933333333333 -s 2 -d 3 -p cbr -e 1000 -c 0 -i 20 -a 0 -x {1.0 3.1 -1 ------- null}
+ -t 0.66 -s 1 -d 2 -p cbr -e 1000 -c 0 -i 22 -a 0 -x {1.0 3.1 6 ------- null}
- -t 0.66 -s 1 -d 2 -p cbr -e 1000 -c 0 -i 22 -a 0 -x {1.0 3.1 6 ------- null}
h -t 0.66 -s 1 -d 2 -p cbr -e 1000 -c 0 -i 22 -a 0 -x {1.0 3.1 -1 ------- null}
+ -t 0.66 -s 0 -d 2 -p cbr -e 1000 -c 0 -i 23 -a 0 -x {0.0 3.0 16 ------- null}
- -t 0.66 -s 0 -d 2 -p cbr -e 1000 -c 0 -i 23 -a 0 -x {0.0 3.0 16 ------- null}
h -t 0.66 -s 0 -d 2 -p cbr -e 1000 -c 0 -i 23 -a 0 -x {0.0 3.0 -1 ------- null}
r -t 0.6616 -s 2 -d 3 -p cbr -e 1000 -c 0 -i 18 -a 0 -x {1.0 3.1 4 ------- null}
- -t 0.662266666666666 -s 2 -d 3 -p cbr -e 1000 -c 0 -i 21 -a 0 -x {0.0 3.0 15 ------- null}
h -t 0.662266666666666 -s 2 -d 3 -p cbr -e 1000 -c 0 -i 21 -a 0 -x {0.0 3.0 -1 ------- null}
r -t 0.6636 -s 1 -d 2 -p cbr -e 1000 -c 0 -i 22 -a 0 -x {1.0 3.1 6 ------- null}
+ -t 0.6636 -s 2 -d 3 -p cbr -e 1000 -c 0 -i 22 -a 0 -x {1.0 3.1 6 ------- null}
r -t 0.6636 -s 0 -d 2 -p cbr -e 1000 -c 0 -i 23 -a 0 -x {0.0 3.0 16 ------- null}
+ -t 0.6636 -s 2 -d 3 -p cbr -e 1000 -c 0 -i 23 -a 0 -x {0.0 3.0 16 ------- null}
r -t 0.666933333333333 -s 2 -d 3 -p cbr -e 1000 -c 0 -i 19 -a 0 -x {0.0 3.0 14 ------- null}
- -t 0.6676 -s 2 -d 3 -p cbr -e 1000 -c 0 -i 22 -a 0 -x {1.0 3.1 6 ------- null}
h -t 0.6676 -s 2 -d 3 -p cbr -e 1000 -c 0 -i 22 -a 0 -x {1.0 3.1 -1 ------- null}
+ -t 0.67 -s 1 -d 2 -p cbr -e 1000 -c 0 -i 24 -a 0 -x {1.0 3.1 7 ------- null}
- -t 0.67 -s 1 -d 2 -p cbr -e 1000 -c 0 -i 24 -a 0 -x {1.0 3.1 7 ------- null}
h -t 0.67 -s 1 -d 2 -p cbr -e 1000 -c 0 -i 24 -a 0 -x {1.0 3.1 -1 ------- null}
+ -t 0.67 -s 0 -d 2 -p cbr -e 1000 -c 0 -i 25 -a 0 -x {0.0 3.0 17 ------- null}
- -t 0.67 -s 0 -d 2 -p cbr -e 1000 -c 0 -i 25 -a 0 -x {0.0 3.0 17 ------- null}
h -t 0.67 -s 0 -d 2 -p cbr -e 1000 -c 0 -i 25 -a 0 -x {0.0 3.0 -1 ------- null}
r -t 0.672266666666666 -s 2 -d 3 -p cbr -e 1000 -c 0 -i 20 -a 0 -x {1.0 3.1 5 ------- null}
- -t 0.672933333333333 -s 2 -d 3 -p cbr -e 1000 -c 0 -i 23 -a 0 -x {0.0 3.0 16 ------- null}
h -t 0.672933333333333 -s 2 -d 3 -p cbr -e 1000 -c 0 -i 23 -a 0 -x {0.0 3.0 -1 ------- null}
r -t 0.6736 -s 1 -d 2 -p cbr -e 1000 -c 0 -i 24 -a 0 -x {1.0 3.1 7 ------- null}
+ -t 0.6736 -s 2 -d 3 -p cbr -e 1000 -c 0 -i 24 -a 0 -x {1.0 3.1 7 ------- null}
r -t 0.6736 -s 0 -d 2 -p cbr -e 1000 -c 0 -i 25 -a 0 -x {0.0 3.0 17 ------- null}
+ -t 0.6736 -s 2 -d 3 -p cbr -e 1000 -c 0 -i 25 -a 0 -x {0.0 3.0 17 ------- null}
r -t 0.6776 -s 2 -d 3 -p cbr -e 1000 -c 0 -i 21 -a 0 -x {0.0 3.0 15 ------- null}
- -t 0.678266666666666 -s 2 -d 3 -p cbr -e 1000 -c 0 -i 24 -a 0 -x {1.0 3.1 7 ------- null}
h -t 0.678266666666666 -s 2 -d 3 -p cbr -e 1000 -c 0 -i 24 -a 0 -x {1.0 3.1 -1 ------- null}
+ -t 0.68 -s 1 -d 2 -p cbr -e 1000 -c 0 -i 26 -a 0 -x {1.0 3.1 8 ------- null}
- -t 0.68 -s 1 -d 2 -p cbr -e 1000 -c 0 -i 26 -a 0 -x {1.0 3.1 8 ------- null}
h -t 0.68 -s 1 -d 2 -p cbr -e 1000 -c 0 -i 26 -a 0 -x {1.0 3.1 -1 ------- null}
+ -t 0.68 -s 0 -d 2 -p cbr -e 1000 -c 0 -i 27 -a 0 -x {0.0 3.0 18 ------- null}
- -t 0.68 -s 0 -d 2 -p cbr -e 1000 -c 0 -i 27 -a 0 -x {0.0 3.0 18 ------- null}
h -t 0.68 -s 0 -d 2 -p cbr -e 1000 -c 0 -i 27 -a 0 -x {0.0 3.0 -1 ------- null}
r -t 0.682933333333333 -s 2 -d 3 -p cbr -e 1000 -c 0 -i 22 -a 0 -x {1.0 3.1 6 ------- null}
- -t 0.6836 -s 2 -d 3 -p cbr -e 1000 -c 0 -i 25 -a 0 -x {0.0 3.0 17 ------- null}
h -t 0.6836 -s 2 -d 3 -p cbr -e 1000 -c 0 -i 25 -a 0 -x {0.0 3.0 -1 ------- null}
r -t 0.6836 -s 1 -d 2 -p cbr -e 1000 -c 0 -i 26 -a 0 -x {1.0 3.1 8 ------- null}
+ -t 0.6836 -s 2 -d 3 -p cbr -e 1000 -c 0 -i 26 -a 0 -x {1.0 3.1 8 ------- null}
r -t 0.6836 -s 0 -d 2 -p cbr -e 1000 -c 0 -i 27 -a 0 -x {0.0 3.0 18 ------- null}
+ -t 0.6836 -s 2 -d 3 -p cbr -e 1000 -c 0 -i 27 -a 0 -x {0.0 3.0 18 ------- null}
r -t 0.688266666666666 -s 2 -d 3 -p cbr -e 1000 -c 0 -i 23 -a 0 -x {0.0 3.0 16 ------- null}
- -t 0.688933333333333 -s 2 -d 3 -p cbr -e 1000 -c 0 -i 26 -a 0 -x {1.0 3.1 8 ------- null}
h -t 0.688933333333333 -s 2 -d 3 -p cbr -e 1000 -c 0 -i 26 -a 0 -x {1.0 3.1 -1 ------- null}
+ -t 0.69 -s 1 -d 2 -p cbr -e 1000 -c 0 -i 28 -a 0 -x {1.0 3.1 9 ------- null}
- -t 0.69 -s 1 -d 2 -p cbr -e 1000 -c 0 -i 28 -a 0 -x {1.0 3.1 9 ------- null}
h -t 0.69 -s 1 -d 2 -p cbr -e 1000 -c 0 -i 28 -a 0 -x {1.0 3.1 -1 ------- null}
+ -t 0.69 -s 0 -d 2 -p cbr -e 1000 -c 0 -i 29 -a 0 -x {0.0 3.0 19 ------- null}
- -t 0.69 -s 0 -d 2 -p cbr -e 1000 -c 0 -i 29 -a 0 -x {0.0 3.0 19 ------- null}
h -t 0.69 -s 0 -d 2 -p cbr -e 1000 -c 0 -i 29 -a 0 -x {0.0 3.0 -1 ------- null}
r -t 0.6936 -s 2 -d 3 -p cbr -e 1000 -c 0 -i 24 -a 0 -x {1.0 3.1 7 ------- null}
r -t 0.6936 -s 1 -d 2 -p cbr -e 1000 -c 0 -i 28 -a 0 -x {1.0 3.1 9 ------- null}
+ -t 0.6936 -s 2 -d 3 -p cbr -e 1000 -c 0 -i 28 -a 0 -x {1.0 3.1 9 ------- null}
r -t 0.6936 -s 0 -d 2 -p cbr -e 1000 -c 0 -i 29 -a 0 -x {0.0 3.0 19 ------- null}
+ -t 0.6936 -s 2 -d 3 -p cbr -e 1000 -c 0 -i 29 -a 0 -x {0.0 3.0 19 ------- null}
- -t 0.694266666666666 -s 2 -d 3 -p cbr -e 1000 -c 0 -i 27 -a 0 -x {0.0 3.0 18 ------- null}
h -t 0.694266666666666 -s 2 -d 3 -p cbr -e 1000 -c 0 -i 27 -a 0 -x {0.0 3.0 -1 ------- null}
r -t 0.698933333333333 -s 2 -d 3 -p cbr -e 1000 -c 0 -i 25 -a 0 -x {0.0 3.0 17 ------- null}
- -t 0.699599999999999 -s 2 -d 3 -p cbr -e 1000 -c 0 -i 28 -a 0 -x {1.0 3.1 9 ------- null}
h -t 0.699599999999999 -s 2 -d 3 -p cbr -e 1000 -c 0 -i 28 -a 0 -x {1.0 3.1 -1 ------- null}
+ -t 0.7 -s 1 -d 2 -p cbr -e 1000 -c 0 -i 30 -a 0 -x {1.0 3.1 10 ------- null}
- -t 0.7 -s 1 -d 2 -p cbr -e 1000 -c 0 -i 30 -a 0 -x {1.0 3.1 10 ------- null}
h -t 0.7 -s 1 -d 2 -p cbr -e 1000 -c 0 -i 30 -a 0 -x {1.0 3.1 -1 ------- null}
+ -t 0.7 -s 0 -d 2 -p cbr -e 1000 -c 0 -i 31 -a 0 -x {0.0 3.0 20 ------- null}
- -t 0.7 -s 0 -d 2 -p cbr -e 1000 -c 0 -i 31 -a 0 -x {0.0 3.0 20 ------- null}
h -t 0.7 -s 0 -d 2 -p cbr -e 1000 -c 0 -i 31 -a 0 -x {0.0 3.0 -1 ------- null}
r -t 0.7036 -s 1 -d 2 -p cbr -e 1000 -c 0 -i 30 -a 0 -x {1.0 3.1 10 ------- null}
+ -t 0.7036 -s 2 -d 3 -p cbr -e 1000 -c 0 -i 30 -a 0 -x {1.0 3.1 10 ------- null}
r -t 0.7036 -s 0 -d 2 -p cbr -e 1000 -c 0 -i 31 -a 0 -x {0.0 3.0 20 ------- null}
+ -t 0.7036 -s 2 -d 3 -p cbr -e 1000 -c 0 -i 31 -a 0 -x {0.0 3.0 20 ------- null}
r -t 0.704266666666666 -s 2 -d 3 -p cbr -e 1000 -c 0 -i 26 -a 0 -x {1.0 3.1 8 ------- null}
- -t 0.704933333333333 -s 2 -d 3 -p cbr -e 1000 -c 0 -i 29 -a 0 -x {0.0 3.0 19 ------- null}
h -t 0.704933333333333 -s 2 -d 3 -p cbr -e 1000 -c 0 -i 29 -a 0 -x {0.0 3.0 -1 ------- null}
r -t 0.709599999999999 -s 2 -d 3 -p cbr -e 1000 -c 0 -i 27 -a 0 -x {0.0 3.0 18 ------- null}
+ -t 0.71 -s 1 -d 2 -p cbr -e 1000 -c 0 -i 32 -a 0 -x {1.0 3.1 11 ------- null}
- -t 0.71 -s 1 -d 2 -p cbr -e 1000 -c 0 -i 32 -a 0 -x {1.0 3.1 11 ------- null}
h -t 0.71 -s 1 -d 2 -p cbr -e 1000 -c 0 -i 32 -a 0 -x {1.0 3.1 -1 ------- null}
+ -t 0.71 -s 0 -d 2 -p cbr -e 1000 -c 0 -i 33 -a 0 -x {0.0 3.0 21 ------- null}
- -t 0.71 -s 0 -d 2 -p cbr -e 1000 -c 0 -i 33 -a 0 -x {0.0 3.0 21 ------- null}
h -t 0.71 -s 0 -d 2 -p cbr -e 1000 -c 0 -i 33 -a 0 -x {0.0 3.0 -1 ------- null}
- -t 0.710266666666666 -s 2 -d 3 -p cbr -e 1000 -c 0 -i 30 -a 0 -x {1.0 3.1 10 ------- null}
h -t 0.710266666666666 -s 2 -d 3 -p cbr -e 1000 -c 0 -i 30 -a 0 -x {1.0 3.1 -1 ------- null}
r -t 0.7136 -s 1 -d 2 -p cbr -e 1000 -c 0 -i 32 -a 0 -x {1.0 3.1 11 ------- null}
+ -t 0.7136 -s 2 -d 3 -p cbr -e 1000 -c 0 -i 32 -a 0 -x {1.0 3.1 11 ------- null}
r -t 0.7136 -s 0 -d 2 -p cbr -e 1000 -c 0 -i 33 -a 0 -x {0.0 3.0 21 ------- null}
+ -t 0.7136 -s 2 -d 3 -p cbr -e 1000 -c 0 -i 33 -a 0 -x {0.0 3.0 21 ------- null}
r -t 0.714933333333333 -s 2 -d 3 -p cbr -e 1000 -c 0 -i 28 -a 0 -x {1.0 3.1 9 ------- null}
- -t 0.715599999999999 -s 2 -d 3 -p cbr -e 1000 -c 0 -i 31 -a 0 -x {0.0 3.0 20 ------- null}
h -t 0.715599999999999 -s 2 -d 3 -p cbr -e 1000 -c 0 -i 31 -a 0 -x {0.0 3.0 -1 ------- null}
+ -t 0.72 -s 1 -d 2 -p cbr -e 1000 -c 0 -i 34 -a 0 -x {1.0 3.1 12 ------- null}
- -t 0.72 -s 1 -d 2 -p cbr -e 1000 -c 0 -i 34 -a 0 -x {1.0 3.1 12 ------- null}
h -t 0.72 -s 1 -d 2 -p cbr -e 1000 -c 0 -i 34 -a 0 -x {1.0 3.1 -1 ------- null}
+ -t 0.72 -s 0 -d 2 -p cbr -e 1000 -c 0 -i 35 -a 0 -x {0.0 3.0 22 ------- null}
- -t 0.72 -s 0 -d 2 -p cbr -e 1000 -c 0 -i 35 -a 0 -x {0.0 3.0 22 ------- null}
h -t 0.72 -s 0 -d 2 -p cbr -e 1000 -c 0 -i 35 -a 0 -x {0.0 3.0 -1 ------- null}
r -t 0.720266666666666 -s 2 -d 3 -p cbr -e 1000 -c 0 -i 29 -a 0 -x {0.0 3.0 19 ------- null}
- -t 0.720933333333333 -s 2 -d 3 -p cbr -e 1000 -c 0 -i 32 -a 0 -x {1.0 3.1 11 ------- null}
h -t 0.720933333333333 -s 2 -d 3 -p cbr -e 1000 -c 0 -i 32 -a 0 -x {1.0 3.1 -1 ------- null}
r -t 0.7236 -s 1 -d 2 -p cbr -e 1000 -c 0 -i 34 -a 0 -x {1.0 3.1 12 ------- null}
+ -t 0.7236 -s 2 -d 3 -p cbr -e 1000 -c 0 -i 34 -a 0 -x {1.0 3.1 12 ------- null}
r -t 0.7236 -s 0 -d 2 -p cbr -e 1000 -c 0 -i 35 -a 0 -x {0.0 3.0 22 ------- null}
+ -t 0.7236 -s 2 -d 3 -p cbr -e 1000 -c 0 -i 35 -a 0 -x {0.0 3.0 22 ------- null}
r -t 0.725599999999999 -s 2 -d 3 -p cbr -e 1000 -c 0 -i 30 -a 0 -x {1.0 3.1 10 ------- null}
- -t 0.726266666666666 -s 2 -d 3 -p cbr -e 1000 -c 0 -i 33 -a 0 -x {0.0 3.0 21 ------- null}
h -t 0.726266666666666 -s 2 -d 3 -p cbr -e 1000 -c 0 -i 33 -a 0 -x {0.0 3.0 -1 ------- null}
+ -t 0.73 -s 1 -d 2 -p cbr -e 1000 -c 0 -i 36 -a 0 -x {1.0 3.1 13 ------- null}
- -t 0.73 -s 1 -d 2 -p cbr -e 1000 -c 0 -i 36 -a 0 -x {1.0 3.1 13 ------- null}
h -t 0.73 -s 1 -d 2 -p cbr -e 1000 -c 0 -i 36 -a 0 -x {1.0 3.1 -1 ------- null}
+ -t 0.73 -s 0 -d 2 -p cbr -e 1000 -c 0 -i 37 -a 0 -x {0.0 3.0 23 ------- null}
- -t 0.73 -s 0 -d 2 -p cbr -e 1000 -c 0 -i 37 -a 0 -x {0.0 3.0 23 ------- null}
h -t 0.73 -s 0 -d 2 -p cbr -e 1000 -c 0 -i 37 -a 0 -x {0.0 3.0 -1 ------- null}
r -t 0.730933333333333 -s 2 -d 3 -p cbr -e 1000 -c 0 -i 31 -a 0 -x {0.0 3.0 20 ------- null}
- -t 0.731599999999999 -s 2 -d 3 -p cbr -e 1000 -c 0 -i 34 -a 0 -x {1.0 3.1 12 ------- null}
h -t 0.731599999999999 -s 2 -d 3 -p cbr -e 1000 -c 0 -i 34 -a 0 -x {1.0 3.1 -1 ------- null}
r -t 0.7336 -s 1 -d 2 -p cbr -e 1000 -c 0 -i 36 -a 0 -x {1.0 3.1 13 ------- null}
+ -t 0.7336 -s 2 -d 3 -p cbr -e 1000 -c 0 -i 36 -a 0 -x {1.0 3.1 13 ------- null}
r -t 0.7336 -s 0 -d 2 -p cbr -e 1000 -c 0 -i 37 -a 0 -x {0.0 3.0 23 ------- null}
+ -t 0.7336 -s 2 -d 3 -p cbr -e 1000 -c 0 -i 37 -a 0 -x {0.0 3.0 23 ------- null}
r -t 0.736266666666666 -s 2 -d 3 -p cbr -e 1000 -c 0 -i 32 -a 0 -x {1.0 3.1 11 ------- null}
- -t 0.736933333333333 -s 2 -d 3 -p cbr -e 1000 -c 0 -i 35 -a 0 -x {0.0 3.0 22 ------- null}
h -t 0.736933333333333 -s 2 -d 3 -p cbr -e 1000 -c 0 -i 35 -a 0 -x {0.0 3.0 -1 ------- null}
+ -t 0.74 -s 1 -d 2 -p cbr -e 1000 -c 0 -i 38 -a 0 -x {1.0 3.1 14 ------- null}
- -t 0.74 -s 1 -d 2 -p cbr -e 1000 -c 0 -i 38 -a 0 -x {1.0 3.1 14 ------- null}
h -t 0.74 -s 1 -d 2 -p cbr -e 1000 -c 0 -i 38 -a 0 -x {1.0 3.1 -1 ------- null}
+ -t 0.74 -s 0 -d 2 -p cbr -e 1000 -c 0 -i 39 -a 0 -x {0.0 3.0 24 ------- null}
- -t 0.74 -s 0 -d 2 -p cbr -e 1000 -c 0 -i 39 -a 0 -x {0.0 3.0 24 ------- null}
h -t 0.74 -s 0 -d 2 -p cbr -e 1000 -c 0 -i 39 -a 0 -x {0.0 3.0 -1 ------- null}
r -t 0.741599999999999 -s 2 -d 3 -p cbr -e 1000 -c 0 -i 33 -a 0 -x {0.0 3.0 21 ------- null}
- -t 0.742266666666666 -s 2 -d 3 -p cbr -e 1000 -c 0 -i 36 -a 0 -x {1.0 3.1 13 ------- null}
h -t 0.742266666666666 -s 2 -d 3 -p cbr -e 1000 -c 0 -i 36 -a 0 -x {1.0 3.1 -1 ------- null}
r -t 0.7436 -s 1 -d 2 -p cbr -e 1000 -c 0 -i 38 -a 0 -x {1.0 3.1 14 ------- null}
+ -t 0.7436 -s 2 -d 3 -p cbr -e 1000 -c 0 -i 38 -a 0 -x {1.0 3.1 14 ------- null}
r -t 0.7436 -s 0 -d 2 -p cbr -e 1000 -c 0 -i 39 -a 0 -x {0.0 3.0 24 ------- null}
+ -t 0.7436 -s 2 -d 3 -p cbr -e 1000 -c 0 -i 39 -a 0 -x {0.0 3.0 24 ------- null}
r -t 0.746933333333333 -s 2 -d 3 -p cbr -e 1000 -c 0 -i 34 -a 0 -x {1.0 3.1 12 ------- null}
- -t 0.747599999999999 -s 2 -d 3 -p cbr -e 1000 -c 0 -i 37 -a 0 -x {0.0 3.0 23 ------- null}
h -t 0.747599999999999 -s 2 -d 3 -p cbr -e 1000 -c 0 -i 37 -a 0 -x {0.0 3.0 -1 ------- null}
+ -t 0.75 -s 1 -d 2 -p cbr -e 1000 -c 0 -i 40 -a 0 -x {1.0 3.1 15 ------- null}
- -t 0.75 -s 1 -d 2 -p cbr -e 1000 -c 0 -i 40 -a 0 -x {1.0 3.1 15 ------- null}
h -t 0.75 -s 1 -d 2 -p cbr -e 1000 -c 0 -i 40 -a 0 -x {1.0 3.1 -1 ------- null}
+ -t 0.75 -s 0 -d 2 -p cbr -e 1000 -c 0 -i 41 -a 0 -x {0.0 3.0 25 ------- null}
- -t 0.75 -s 0 -d 2 -p cbr -e 1000 -c 0 -i 41 -a 0 -x {0.0 3.0 25 ------- null}
h -t 0.75 -s 0 -d 2 -p cbr -e 1000 -c 0 -i 41 -a 0 -x {0.0 3.0 -1 ------- null}
r -t 0.752266666666666 -s 2 -d 3 -p cbr -e 1000 -c 0 -i 35 -a 0 -x {0.0 3.0 22 ------- null}
- -t 0.752933333333332 -s 2 -d 3 -p cbr -e 1000 -c 0 -i 38 -a 0 -x {1.0 3.1 14 ------- null}
h -t 0.752933333333332 -s 2 -d 3 -p cbr -e 1000 -c 0 -i 38 -a 0 -x {1.0 3.1 -1 ------- null}
r -t 0.7536 -s 1 -d 2 -p cbr -e 1000 -c 0 -i 40 -a 0 -x {1.0 3.1 15 ------- null}
+ -t 0.7536 -s 2 -d 3 -p cbr -e 1000 -c 0 -i 40 -a 0 -x {1.0 3.1 15 ------- null}
r -t 0.7536 -s 0 -d 2 -p cbr -e 1000 -c 0 -i 41 -a 0 -x {0.0 3.0 25 ------- null}
+ -t 0.7536 -s 2 -d 3 -p cbr -e 1000 -c 0 -i 41 -a 0 -x {0.0 3.0 25 ------- null}
r -t 0.757599999999999 -s 2 -d 3 -p cbr -e 1000 -c 0 -i 36 -a 0 -x {1.0 3.1 13 ------- null}
- -t 0.758266666666666 -s 2 -d 3 -p cbr -e 1000 -c 0 -i 39 -a 0 -x {0.0 3.0 24 ------- null}
h -t 0.758266666666666 -s 2 -d 3 -p cbr -e 1000 -c 0 -i 39 -a 0 -x {0.0 3.0 -1 ------- null}
+ -t 0.76 -s 1 -d 2 -p cbr -e 1000 -c 0 -i 42 -a 0 -x {1.0 3.1 16 ------- null}
- -t 0.76 -s 1 -d 2 -p cbr -e 1000 -c 0 -i 42 -a 0 -x {1.0 3.1 16 ------- null}
h -t 0.76 -s 1 -d 2 -p cbr -e 1000 -c 0 -i 42 -a 0 -x {1.0 3.1 -1 ------- null}
+ -t 0.76 -s 0 -d 2 -p cbr -e 1000 -c 0 -i 43 -a 0 -x {0.0 3.0 26 ------- null}
- -t 0.76 -s 0 -d 2 -p cbr -e 1000 -c 0 -i 43 -a 0 -x {0.0 3.0 26 ------- null}
h -t 0.76 -s 0 -d 2 -p cbr -e 1000 -c 0 -i 43 -a 0 -x {0.0 3.0 -1 ------- null}
r -t 0.762933333333332 -s 2 -d 3 -p cbr -e 1000 -c 0 -i 37 -a 0 -x {0.0 3.0 23 ------- null}
- -t 0.763599999999999 -s 2 -d 3 -p cbr -e 1000 -c 0 -i 40 -a 0 -x {1.0 3.1 15 ------- null}
h -t 0.763599999999999 -s 2 -d 3 -p cbr -e 1000 -c 0 -i 40 -a 0 -x {1.0 3.1 -1 ------- null}
r -t 0.7636 -s 1 -d 2 -p cbr -e 1000 -c 0 -i 42 -a 0 -x {1.0 3.1 16 ------- null}
+ -t 0.7636 -s 2 -d 3 -p cbr -e 1000 -c 0 -i 42 -a 0 -x {1.0 3.1 16 ------- null}
r -t 0.7636 -s 0 -d 2 -p cbr -e 1000 -c 0 -i 43 -a 0 -x {0.0 3.0 26 ------- null}
+ -t 0.7636 -s 2 -d 3 -p cbr -e 1000 -c 0 -i 43 -a 0 -x {0.0 3.0 26 ------- null}
r -t 0.768266666666666 -s 2 -d 3 -p cbr -e 1000 -c 0 -i 38 -a 0 -x {1.0 3.1 14 ------- null}
- -t 0.768933333333332 -s 2 -d 3 -p cbr -e 1000 -c 0 -i 41 -a 0 -x {0.0 3.0 25 ------- null}
h -t 0.768933333333332 -s 2 -d 3 -p cbr -e 1000 -c 0 -i 41 -a 0 -x {0.0 3.0 -1 ------- null}
+ -t 0.77 -s 1 -d 2 -p cbr -e 1000 -c 0 -i 44 -a 0 -x {1.0 3.1 17 ------- null}
- -t 0.77 -s 1 -d 2 -p cbr -e 1000 -c 0 -i 44 -a 0 -x {1.0 3.1 17 ------- null}
h -t 0.77 -s 1 -d 2 -p cbr -e 1000 -c 0 -i 44 -a 0 -x {1.0 3.1 -1 ------- null}
+ -t 0.77 -s 0 -d 2 -p cbr -e 1000 -c 0 -i 45 -a 0 -x {0.0 3.0 27 ------- null}
- -t 0.77 -s 0 -d 2 -p cbr -e 1000 -c 0 -i 45 -a 0 -x {0.0 3.0 27 ------- null}
h -t 0.77 -s 0 -d 2 -p cbr -e 1000 -c 0 -i 45 -a 0 -x {0.0 3.0 -1 ------- null}
r -t 0.773599999999999 -s 2 -d 3 -p cbr -e 1000 -c 0 -i 39 -a 0 -x {0.0 3.0 24 ------- null}
r -t 0.7736 -s 1 -d 2 -p cbr -e 1000 -c 0 -i 44 -a 0 -x {1.0 3.1 17 ------- null}
+ -t 0.7736 -s 2 -d 3 -p cbr -e 1000 -c 0 -i 44 -a 0 -x {1.0 3.1 17 ------- null}